LAMMPS data file generated by atomipy on 2026-04-19 11:31:14
# Total charge of the system is 0.000000
# Hw-Ow-Hw

9594 atoms
1266 bonds
17881 angles
0 dihedrals
0 impropers

12 atom types
3 bond types
33 angle types
0 dihedral types
0 improper types

0.0 41.28000 xlo xhi
0.0 62.76076 ylo yhi
0.0 44.00000 zlo zhi
0.00000 -0.18183 0.00000 xy xz yz

Masses

1 26.98200  # Alo
2 1.00784  # H
3 1.00784  # Hw
4 24.30500  # Mgo
5 22.98980  # Na
6 15.99940  # Ob
7 15.99940  # Oh
8 15.99940  # Ohmg
9 15.99940  # Omg
10 15.99940  # Op
11 15.99940  # Ow
12 28.08500  # Sit

Atoms

1       1       1       1.782000    0.00000     0.00000     0.00000       # Alo
2       1       1       1.782000    2.61000     4.48000     0.00000       # Alo
3       1       1       1.782000    0.04300     5.96800     0.00000       # Alo
4       1       1       1.782000    2.59300     1.47800     0.00000       # Alo
5       1       12      1.884000    0.76700     7.38800     2.68000       # Sit
6       1       12      1.884000    0.85300     1.36800     2.69000       # Sit
7       1       12      1.884000    3.37300     2.89800     2.68000       # Sit
8       1       12      1.884000    2.69306     7.36417     41.32000      # Sit
9       1       12      1.884000    0.13306     2.87817     41.32000      # Sit
10      1       12      1.884000    3.46300     5.84800     2.69000       # Sit
11      1       12      1.884000    2.65306     4.41817     41.31000      # Sit
12      1       12      1.884000    0.04306     -0.07183    41.31000      # Sit
13      1       6       -0.942000   2.24300     1.91800     3.30000       # Ob
14      1       6       -0.942000   0.55300     8.86400     3.29000       # Ob
15      1       6       -0.942000   4.84300     2.40800     3.06000       # Ob
16      1       6       -0.942000   4.85300     6.40800     3.30000       # Ob
17      1       6       -0.942000   1.26306     3.85817     40.70000      # Ob
18      1       6       -0.942000   -1.34694    8.34417     40.70000      # Ob
19      1       6       -0.942000   3.16300     4.38800     3.29000       # Ob
20      1       6       -0.942000   2.95306     5.87817     40.71000      # Ob
21      1       6       -0.942000   0.34306     1.39817     40.71000      # Ob
22      1       6       -0.942000   2.29300     6.88800     3.06000       # Ob
23      1       6       -0.942000   -1.33694    3.37817     40.94000      # Ob
24      1       6       -0.942000   1.21306     7.85417     40.94000      # Ob
25      1       10      -1.065000   0.57300     7.46400     1.06000       # Op
26      1       10      -1.065000   1.00300     1.23800     1.06000       # Op
27      1       10      -1.065000   3.17300     2.97800     1.06000       # Op
28      1       10      -1.065000   2.87706     7.28817     42.94000      # Op
29      1       10      -1.065000   0.33306     2.80817     42.94000      # Op
30      1       10      -1.065000   3.61300     5.71800     1.06000       # Op
31      1       10      -1.065000   2.50306     4.53817     42.94000      # Op
32      1       10      -1.065000   -0.10694    0.05817     42.94000      # Op
33      1       8       -1.124000   3.57300     0.20800     0.99000       # Ohmg
34      1       7       -0.994000   1.01300     4.68800     0.99000       # Oh
35      1       7       -0.994000   -0.06694    5.57817     43.01000      # Oh
36      1       8       -1.124000   2.49306     1.08817     43.01000      # Ohmg
37      1       2       0.400000    3.31300     8.73400     1.81000       # H
38      1       2       0.400000    0.76300     4.24800     1.81000       # H
39      1       2       0.400000    0.19306     6.00817     42.19000      # H
40      1       2       0.400000    2.74306     1.52817     42.19000      # H
41      1       4       1.562000    5.16000     0.00000     0.00000       # Mgo
42      1       1       1.782000    7.77000     4.48000     0.00000       # Alo
43      1       1       1.782000    5.20300     5.96800     0.00000       # Alo
44      1       1       1.782000    7.75300     1.47800     0.00000       # Alo
45      1       12      1.884000    5.92700     7.38800     2.68000       # Sit
46      1       12      1.884000    6.01300     1.36800     2.69000       # Sit
47      1       12      1.884000    8.53300     2.89800     2.68000       # Sit
48      1       12      1.884000    7.85306     7.36417     41.32000      # Sit
49      1       12      1.884000    5.29306     2.87817     41.32000      # Sit
50      1       12      1.884000    8.62300     5.84800     2.69000       # Sit
51      1       12      1.884000    7.81306     4.41817     41.31000      # Sit
52      1       12      1.884000    5.20306     -0.07183    41.31000      # Sit
53      1       6       -0.942000   7.40300     1.91800     3.30000       # Ob
54      1       6       -0.942000   5.71300     8.86400     3.29000       # Ob
55      1       6       -0.942000   10.00300    2.40800     3.06000       # Ob
56      1       6       -0.942000   10.01300    6.40800     3.30000       # Ob
57      1       6       -0.942000   6.42306     3.85817     40.70000      # Ob
58      1       6       -0.942000   3.81306     8.34417     40.70000      # Ob
59      1       6       -0.942000   8.32300     4.38800     3.29000       # Ob
60      1       6       -0.942000   8.11306     5.87817     40.71000      # Ob
61      1       6       -0.942000   5.50306     1.39817     40.71000      # Ob
62      1       6       -0.942000   7.45300     6.88800     3.06000       # Ob
63      1       6       -0.942000   3.82306     3.37817     40.94000      # Ob
64      1       6       -0.942000   6.37306     7.85417     40.94000      # Ob
65      1       10      -1.065000   5.73300     7.46400     1.06000       # Op
66      1       9       -1.195000   6.16300     1.23800     1.06000       # Omg
67      1       10      -1.065000   8.33300     2.97800     1.06000       # Op
68      1       9       -1.195000   8.03706     7.28817     42.94000      # Omg
69      1       10      -1.065000   5.49306     2.80817     42.94000      # Op
70      1       9       -1.195000   8.77300     5.71800     1.06000       # Omg
71      1       9       -1.195000   7.66306     4.53817     42.94000      # Omg
72      1       9       -1.195000   5.05306     0.05817     42.94000      # Omg
73      1       7       -0.994000   8.73300     0.20800     0.99000       # Oh
74      1       7       -0.994000   6.17300     4.68800     0.99000       # Oh
75      1       7       -0.994000   5.09306     5.57817     43.01000      # Oh
76      1       7       -0.994000   7.65306     1.08817     43.01000      # Oh
77      1       2       0.400000    8.47300     8.73400     1.81000       # H
78      1       2       0.400000    5.92300     4.24800     1.81000       # H
79      1       2       0.400000    5.35306     6.00817     42.19000      # H
80      1       2       0.400000    7.90306     1.52817     42.19000      # H
81      1       1       1.782000    10.32000    0.00000     0.00000       # Alo
82      1       1       1.782000    12.93000    4.48000     0.00000       # Alo
83      1       4       1.562000    10.36300    5.96800     0.00000       # Mgo
84      1       1       1.782000    12.91300    1.47800     0.00000       # Alo
85      1       12      1.884000    11.08700    7.38800     2.68000       # Sit
86      1       12      1.884000    11.17300    1.36800     2.69000       # Sit
87      1       12      1.884000    13.69300    2.89800     2.68000       # Sit
88      1       12      1.884000    13.01306    7.36417     41.32000      # Sit
89      1       12      1.884000    10.45306    2.87817     41.32000      # Sit
90      1       12      1.884000    13.78300    5.84800     2.69000       # Sit
91      1       12      1.884000    12.97306    4.41817     41.31000      # Sit
92      1       12      1.884000    10.36306    -0.07183    41.31000      # Sit
93      1       6       -0.942000   12.56300    1.91800     3.30000       # Ob
94      1       6       -0.942000   10.87300    8.86400     3.29000       # Ob
95      1       6       -0.942000   15.16300    2.40800     3.06000       # Ob
96      1       6       -0.942000   15.17300    6.40800     3.30000       # Ob
97      1       6       -0.942000   11.58306    3.85817     40.70000      # Ob
98      1       6       -0.942000   8.97306     8.34417     40.70000      # Ob
99      1       6       -0.942000   13.48300    4.38800     3.29000       # Ob
100     1       6       -0.942000   13.27306    5.87817     40.71000      # Ob
101     1       6       -0.942000   10.66306    1.39817     40.71000      # Ob
102     1       6       -0.942000   12.61300    6.88800     3.06000       # Ob
103     1       6       -0.942000   8.98306     3.37817     40.94000      # Ob
104     1       6       -0.942000   11.53306    7.85417     40.94000      # Ob
105     1       9       -1.195000   10.89300    7.46400     1.06000       # Omg
106     1       10      -1.065000   11.32300    1.23800     1.06000       # Op
107     1       10      -1.065000   13.49300    2.97800     1.06000       # Op
108     1       10      -1.065000   13.19706    7.28817     42.94000      # Op
109     1       10      -1.065000   10.65306    2.80817     42.94000      # Op
110     1       10      -1.065000   13.93300    5.71800     1.06000       # Op
111     1       10      -1.065000   12.82306    4.53817     42.94000      # Op
112     1       10      -1.065000   10.21306    0.05817     42.94000      # Op
113     1       7       -0.994000   13.89300    0.20800     0.99000       # Oh
114     1       8       -1.124000   11.33300    4.68800     0.99000       # Ohmg
115     1       8       -1.124000   10.25306    5.57817     43.01000      # Ohmg
116     1       7       -0.994000   12.81306    1.08817     43.01000      # Oh
117     1       2       0.400000    13.63300    8.73400     1.81000       # H
118     1       2       0.400000    11.08300    4.24800     1.81000       # H
119     1       2       0.400000    10.51306    6.00817     42.19000      # H
120     1       2       0.400000    13.06306    1.52817     42.19000      # H
121     1       1       1.782000    15.48000    0.00000     0.00000       # Alo
122     1       1       1.782000    18.09000    4.48000     0.00000       # Alo
123     1       1       1.782000    15.52300    5.96800     0.00000       # Alo
124     1       1       1.782000    18.07300    1.47800     0.00000       # Alo
125     1       12      1.884000    16.24700    7.38800     2.68000       # Sit
126     1       12      1.884000    16.33300    1.36800     2.69000       # Sit
127     1       12      1.884000    18.85300    2.89800     2.68000       # Sit
128     1       12      1.884000    18.17306    7.36417     41.32000      # Sit
129     1       12      1.884000    15.61306    2.87817     41.32000      # Sit
130     1       12      1.884000    18.94300    5.84800     2.69000       # Sit
131     1       12      1.884000    18.13306    4.41817     41.31000      # Sit
132     1       12      1.884000    15.52306    -0.07183    41.31000      # Sit
133     1       6       -0.942000   17.72300    1.91800     3.30000       # Ob
134     1       6       -0.942000   16.03300    8.86400     3.29000       # Ob
135     1       6       -0.942000   20.32300    2.40800     3.06000       # Ob
136     1       6       -0.942000   20.33300    6.40800     3.30000       # Ob
137     1       6       -0.942000   16.74306    3.85817     40.70000      # Ob
138     1       6       -0.942000   14.13306    8.34417     40.70000      # Ob
139     1       6       -0.942000   18.64300    4.38800     3.29000       # Ob
140     1       6       -0.942000   18.43306    5.87817     40.71000      # Ob
141     1       6       -0.942000   15.82306    1.39817     40.71000      # Ob
142     1       6       -0.942000   17.77300    6.88800     3.06000       # Ob
143     1       6       -0.942000   14.14306    3.37817     40.94000      # Ob
144     1       6       -0.942000   16.69306    7.85417     40.94000      # Ob
145     1       10      -1.065000   16.05300    7.46400     1.06000       # Op
146     1       10      -1.065000   16.48300    1.23800     1.06000       # Op
147     1       10      -1.065000   18.65300    2.97800     1.06000       # Op
148     1       10      -1.065000   18.35706    7.28817     42.94000      # Op
149     1       10      -1.065000   15.81306    2.80817     42.94000      # Op
150     1       10      -1.065000   19.09300    5.71800     1.06000       # Op
151     1       10      -1.065000   17.98306    4.53817     42.94000      # Op
152     1       10      -1.065000   15.37306    0.05817     42.94000      # Op
153     1       8       -1.124000   19.05300    0.20800     0.99000       # Ohmg
154     1       7       -0.994000   16.49300    4.68800     0.99000       # Oh
155     1       7       -0.994000   15.41306    5.57817     43.01000      # Oh
156     1       8       -1.124000   17.97306    1.08817     43.01000      # Ohmg
157     1       2       0.400000    18.79300    8.73400     1.81000       # H
158     1       2       0.400000    16.24300    4.24800     1.81000       # H
159     1       2       0.400000    15.67306    6.00817     42.19000      # H
160     1       2       0.400000    18.22306    1.52817     42.19000      # H
161     1       4       1.562000    20.64000    0.00000     0.00000       # Mgo
162     1       1       1.782000    23.25000    4.48000     0.00000       # Alo
163     1       1       1.782000    20.68300    5.96800     0.00000       # Alo
164     1       1       1.782000    23.23300    1.47800     0.00000       # Alo
165     1       12      1.884000    21.40700    7.38800     2.68000       # Sit
166     1       12      1.884000    21.49300    1.36800     2.69000       # Sit
167     1       12      1.884000    24.01300    2.89800     2.68000       # Sit
168     1       12      1.884000    23.33306    7.36417     41.32000      # Sit
169     1       12      1.884000    20.77306    2.87817     41.32000      # Sit
170     1       12      1.884000    24.10300    5.84800     2.69000       # Sit
171     1       12      1.884000    23.29306    4.41817     41.31000      # Sit
172     1       12      1.884000    20.68306    -0.07183    41.31000      # Sit
173     1       6       -0.942000   22.88300    1.91800     3.30000       # Ob
174     1       6       -0.942000   21.19300    8.86400     3.29000       # Ob
175     1       6       -0.942000   25.48300    2.40800     3.06000       # Ob
176     1       6       -0.942000   25.49300    6.40800     3.30000       # Ob
177     1       6       -0.942000   21.90306    3.85817     40.70000      # Ob
178     1       6       -0.942000   19.29306    8.34417     40.70000      # Ob
179     1       6       -0.942000   23.80300    4.38800     3.29000       # Ob
180     1       6       -0.942000   23.59306    5.87817     40.71000      # Ob
181     1       6       -0.942000   20.98306    1.39817     40.71000      # Ob
182     1       6       -0.942000   22.93300    6.88800     3.06000       # Ob
183     1       6       -0.942000   19.30306    3.37817     40.94000      # Ob
184     1       6       -0.942000   21.85306    7.85417     40.94000      # Ob
185     1       10      -1.065000   21.21300    7.46400     1.06000       # Op
186     1       9       -1.195000   21.64300    1.23800     1.06000       # Omg
187     1       10      -1.065000   23.81300    2.97800     1.06000       # Op
188     1       9       -1.195000   23.51706    7.28817     42.94000      # Omg
189     1       10      -1.065000   20.97306    2.80817     42.94000      # Op
190     1       9       -1.195000   24.25300    5.71800     1.06000       # Omg
191     1       9       -1.195000   23.14306    4.53817     42.94000      # Omg
192     1       9       -1.195000   20.53306    0.05817     42.94000      # Omg
193     1       7       -0.994000   24.21300    0.20800     0.99000       # Oh
194     1       7       -0.994000   21.65300    4.68800     0.99000       # Oh
195     1       7       -0.994000   20.57306    5.57817     43.01000      # Oh
196     1       7       -0.994000   23.13306    1.08817     43.01000      # Oh
197     1       2       0.400000    23.95300    8.73400     1.81000       # H
198     1       2       0.400000    21.40300    4.24800     1.81000       # H
199     1       2       0.400000    20.83306    6.00817     42.19000      # H
200     1       2       0.400000    23.38306    1.52817     42.19000      # H
201     1       1       1.782000    25.80000    0.00000     0.00000       # Alo
202     1       1       1.782000    28.41000    4.48000     0.00000       # Alo
203     1       4       1.562000    25.84300    5.96800     0.00000       # Mgo
204     1       1       1.782000    28.39300    1.47800     0.00000       # Alo
205     1       12      1.884000    26.56700    7.38800     2.68000       # Sit
206     1       12      1.884000    26.65300    1.36800     2.69000       # Sit
207     1       12      1.884000    29.17300    2.89800     2.68000       # Sit
208     1       12      1.884000    28.49306    7.36417     41.32000      # Sit
209     1       12      1.884000    25.93306    2.87817     41.32000      # Sit
210     1       12      1.884000    29.26300    5.84800     2.69000       # Sit
211     1       12      1.884000    28.45306    4.41817     41.31000      # Sit
212     1       12      1.884000    25.84306    -0.07183    41.31000      # Sit
213     1       6       -0.942000   28.04300    1.91800     3.30000       # Ob
214     1       6       -0.942000   26.35300    8.86400     3.29000       # Ob
215     1       6       -0.942000   30.64300    2.40800     3.06000       # Ob
216     1       6       -0.942000   30.65300    6.40800     3.30000       # Ob
217     1       6       -0.942000   27.06306    3.85817     40.70000      # Ob
218     1       6       -0.942000   24.45306    8.34417     40.70000      # Ob
219     1       6       -0.942000   28.96300    4.38800     3.29000       # Ob
220     1       6       -0.942000   28.75306    5.87817     40.71000      # Ob
221     1       6       -0.942000   26.14306    1.39817     40.71000      # Ob
222     1       6       -0.942000   28.09300    6.88800     3.06000       # Ob
223     1       6       -0.942000   24.46306    3.37817     40.94000      # Ob
224     1       6       -0.942000   27.01306    7.85417     40.94000      # Ob
225     1       9       -1.195000   26.37300    7.46400     1.06000       # Omg
226     1       10      -1.065000   26.80300    1.23800     1.06000       # Op
227     1       10      -1.065000   28.97300    2.97800     1.06000       # Op
228     1       10      -1.065000   28.67706    7.28817     42.94000      # Op
229     1       10      -1.065000   26.13306    2.80817     42.94000      # Op
230     1       10      -1.065000   29.41300    5.71800     1.06000       # Op
231     1       10      -1.065000   28.30306    4.53817     42.94000      # Op
232     1       10      -1.065000   25.69306    0.05817     42.94000      # Op
233     1       8       -1.124000   29.37300    0.20800     0.99000       # Ohmg
234     1       8       -1.124000   26.81300    4.68800     0.99000       # Ohmg
235     1       8       -1.124000   25.73306    5.57817     43.01000      # Ohmg
236     1       8       -1.124000   28.29306    1.08817     43.01000      # Ohmg
237     1       2       0.400000    29.11300    8.73400     1.81000       # H
238     1       2       0.400000    26.56300    4.24800     1.81000       # H
239     1       2       0.400000    25.99306    6.00817     42.19000      # H
240     1       2       0.400000    28.54306    1.52817     42.19000      # H
241     1       4       1.562000    30.96000    0.00000     0.00000       # Mgo
242     1       1       1.782000    33.57000    4.48000     0.00000       # Alo
243     1       1       1.782000    31.00300    5.96800     0.00000       # Alo
244     1       1       1.782000    33.55300    1.47800     0.00000       # Alo
245     1       12      1.884000    31.72700    7.38800     2.68000       # Sit
246     1       12      1.884000    31.81300    1.36800     2.69000       # Sit
247     1       12      1.884000    34.33300    2.89800     2.68000       # Sit
248     1       12      1.884000    33.65306    7.36417     41.32000      # Sit
249     1       12      1.884000    31.09306    2.87817     41.32000      # Sit
250     1       12      1.884000    34.42300    5.84800     2.69000       # Sit
251     1       12      1.884000    33.61306    4.41817     41.31000      # Sit
252     1       12      1.884000    31.00306    -0.07183    41.31000      # Sit
253     1       6       -0.942000   33.20300    1.91800     3.30000       # Ob
254     1       6       -0.942000   31.51300    8.86400     3.29000       # Ob
255     1       6       -0.942000   35.80300    2.40800     3.06000       # Ob
256     1       6       -0.942000   35.81300    6.40800     3.30000       # Ob
257     1       6       -0.942000   32.22306    3.85817     40.70000      # Ob
258     1       6       -0.942000   29.61306    8.34417     40.70000      # Ob
259     1       6       -0.942000   34.12300    4.38800     3.29000       # Ob
260     1       6       -0.942000   33.91306    5.87817     40.71000      # Ob
261     1       6       -0.942000   31.30306    1.39817     40.71000      # Ob
262     1       6       -0.942000   33.25300    6.88800     3.06000       # Ob
263     1       6       -0.942000   29.62306    3.37817     40.94000      # Ob
264     1       6       -0.942000   32.17306    7.85417     40.94000      # Ob
265     1       10      -1.065000   31.53300    7.46400     1.06000       # Op
266     1       9       -1.195000   31.96300    1.23800     1.06000       # Omg
267     1       10      -1.065000   34.13300    2.97800     1.06000       # Op
268     1       10      -1.065000   33.83706    7.28817     42.94000      # Op
269     1       10      -1.065000   31.29306    2.80817     42.94000      # Op
270     1       10      -1.065000   34.57300    5.71800     1.06000       # Op
271     1       10      -1.065000   33.46306    4.53817     42.94000      # Op
272     1       9       -1.195000   30.85306    0.05817     42.94000      # Omg
273     1       7       -0.994000   34.53300    0.20800     0.99000       # Oh
274     1       7       -0.994000   31.97300    4.68800     0.99000       # Oh
275     1       7       -0.994000   30.89306    5.57817     43.01000      # Oh
276     1       7       -0.994000   33.45306    1.08817     43.01000      # Oh
277     1       2       0.400000    34.27300    8.73400     1.81000       # H
278     1       2       0.400000    31.72300    4.24800     1.81000       # H
279     1       2       0.400000    31.15306    6.00817     42.19000      # H
280     1       2       0.400000    33.70306    1.52817     42.19000      # H
281     1       1       1.782000    36.12000    0.00000     0.00000       # Alo
282     1       4       1.562000    38.73000    4.48000     0.00000       # Mgo
283     1       1       1.782000    36.16300    5.96800     0.00000       # Alo
284     1       1       1.782000    38.71300    1.47800     0.00000       # Alo
285     1       12      1.884000    36.88700    7.38800     2.68000       # Sit
286     1       12      1.884000    36.97300    1.36800     2.69000       # Sit
287     1       12      1.884000    39.49300    2.89800     2.68000       # Sit
288     1       12      1.884000    38.81306    7.36417     41.32000      # Sit
289     1       12      1.884000    36.25306    2.87817     41.32000      # Sit
290     1       12      1.884000    39.58300    5.84800     2.69000       # Sit
291     1       12      1.884000    38.77306    4.41817     41.31000      # Sit
292     1       12      1.884000    36.16306    -0.07183    41.31000      # Sit
293     1       6       -0.942000   38.36300    1.91800     3.30000       # Ob
294     1       6       -0.942000   36.67300    8.86400     3.29000       # Ob
295     1       6       -0.942000   40.96300    2.40800     3.06000       # Ob
296     1       6       -0.942000   40.97300    6.40800     3.30000       # Ob
297     1       6       -0.942000   37.38306    3.85817     40.70000      # Ob
298     1       6       -0.942000   34.77306    8.34417     40.70000      # Ob
299     1       6       -0.942000   39.28300    4.38800     3.29000       # Ob
300     1       6       -0.942000   39.07306    5.87817     40.71000      # Ob
301     1       6       -0.942000   36.46306    1.39817     40.71000      # Ob
302     1       6       -0.942000   38.41300    6.88800     3.06000       # Ob
303     1       6       -0.942000   34.78306    3.37817     40.94000      # Ob
304     1       6       -0.942000   37.33306    7.85417     40.94000      # Ob
305     1       10      -1.065000   36.69300    7.46400     1.06000       # Op
306     1       10      -1.065000   37.12300    1.23800     1.06000       # Op
307     1       9       -1.195000   39.29300    2.97800     1.06000       # Omg
308     1       10      -1.065000   38.99706    7.28817     42.94000      # Op
309     1       9       -1.195000   36.45306    2.80817     42.94000      # Omg
310     1       9       -1.195000   39.73300    5.71800     1.06000       # Omg
311     1       9       -1.195000   38.62306    4.53817     42.94000      # Omg
312     1       10      -1.065000   36.01306    0.05817     42.94000      # Op
313     1       7       -0.994000   39.69300    0.20800     0.99000       # Oh
314     1       8       -1.124000   37.13300    4.68800     0.99000       # Ohmg
315     1       8       -1.124000   36.05306    5.57817     43.01000      # Ohmg
316     1       7       -0.994000   38.61306    1.08817     43.01000      # Oh
317     1       2       0.400000    39.43300    8.73400     1.81000       # H
318     1       2       0.400000    36.88300    4.24800     1.81000       # H
319     1       2       0.400000    36.31306    6.00817     42.19000      # H
320     1       2       0.400000    38.86306    1.52817     42.19000      # H
321     1       1       1.782000    41.33630    8.96580     0.00000       # Alo
322     1       1       1.782000    2.66630     13.44580    0.00000       # Alo
323     1       1       1.782000    0.09930     14.93380    0.00000       # Alo
324     1       4       1.562000    2.64930     10.44380    0.00000       # Mgo
325     1       12      1.884000    0.82330     16.35380    2.68000       # Sit
326     1       12      1.884000    0.90930     10.33380    2.69000       # Sit
327     1       12      1.884000    3.42930     11.86380    2.68000       # Sit
328     1       12      1.884000    2.74936     16.32997    41.32000      # Sit
329     1       12      1.884000    0.18936     11.84397    41.32000      # Sit
330     1       12      1.884000    3.51930     14.81380    2.69000       # Sit
331     1       12      1.884000    2.70936     13.38397    41.31000      # Sit
332     1       12      1.884000    0.09936     8.89397     41.31000      # Sit
333     1       6       -0.942000   2.29930     10.88380    3.30000       # Ob
334     1       6       -0.942000   0.60930     17.82980    3.29000       # Ob
335     1       6       -0.942000   4.89930     11.37380    3.06000       # Ob
336     1       6       -0.942000   4.90930     15.37380    3.30000       # Ob
337     1       6       -0.942000   1.31936     12.82397    40.70000      # Ob
338     1       6       -0.942000   -1.29064    17.30997    40.70000      # Ob
339     1       6       -0.942000   3.21930     13.35380    3.29000       # Ob
340     1       6       -0.942000   3.00936     14.84397    40.71000      # Ob
341     1       6       -0.942000   0.39936     10.36397    40.71000      # Ob
342     1       6       -0.942000   2.34930     15.85380    3.06000       # Ob
343     1       6       -0.942000   -1.28064    12.34397    40.94000      # Ob
344     1       6       -0.942000   1.26936     16.81997    40.94000      # Ob
345     1       10      -1.065000   0.62930     16.42980    1.06000       # Op
346     1       9       -1.195000   1.05930     10.20380    1.06000       # Omg
347     1       9       -1.195000   3.22930     11.94380    1.06000       # Omg
348     1       10      -1.065000   2.93336     16.25397    42.94000      # Op
349     1       9       -1.195000   0.38936     11.77397    42.94000      # Omg
350     1       10      -1.065000   3.66930     14.68380    1.06000       # Op
351     1       10      -1.065000   2.55936     13.50397    42.94000      # Op
352     1       9       -1.195000   -0.05064    9.02397     42.94000      # Omg
353     1       8       -1.124000   3.62930     9.17380     0.99000       # Ohmg
354     1       7       -0.994000   1.06930     13.65380    0.99000       # Oh
355     1       7       -0.994000   -0.01064    14.54397    43.01000      # Oh
356     1       8       -1.124000   2.54936     10.05397    43.01000      # Ohmg
357     1       2       0.400000    3.36930     17.69980    1.81000       # H
358     1       2       0.400000    0.81930     13.21380    1.81000       # H
359     1       2       0.400000    0.24936     14.97397    42.19000      # H
360     1       2       0.400000    2.79936     10.49397    42.19000      # H
361     1       1       1.782000    5.21630     8.96580     0.00000       # Alo
362     1       1       1.782000    7.82630     13.44580    0.00000       # Alo
363     1       1       1.782000    5.25930     14.93380    0.00000       # Alo
364     1       1       1.782000    7.80930     10.44380    0.00000       # Alo
365     1       12      1.884000    5.98330     16.35380    2.68000       # Sit
366     1       12      1.884000    6.06930     10.33380    2.69000       # Sit
367     1       12      1.884000    8.58930     11.86380    2.68000       # Sit
368     1       12      1.884000    7.90936     16.32997    41.32000      # Sit
369     1       12      1.884000    5.34936     11.84397    41.32000      # Sit
370     1       12      1.884000    8.67930     14.81380    2.69000       # Sit