LAMMPS data file generated by atomipy on 2026-04-19 21:30:49
# Total charge of the system is 0.000000
# Hw-Ow-Hw

9594 atoms
3808 bonds
19152 angles
0 dihedrals
0 impropers

12 atom types
3 bond types
33 angle types
0 dihedral types
0 improper types

0.0 41.28000 xlo xhi
0.0 62.76080 ylo yhi
0.0 44.00000 zlo zhi
0.00000 -0.18180 0.00000 xy xz yz

Masses

1 26.98200  # Alo
2 1.00784  # H
3 1.00784  # Hw
4 24.30500  # Mgo
5 22.98980  # Na
6 15.99940  # Ob
7 15.99940  # Oh
8 15.99940  # Ohmg
9 15.99940  # Omg
10 15.99940  # Op
11 15.99940  # Ow
12 28.08500  # Sit

Atoms

1       1       1       1.575000    0.00000     0.00000     0.00000       # Alo
2       1       4       1.360000    2.61000     4.48000     0.00000       # Mgo
3       1       1       1.575000    0.04000     5.97000     0.00000       # Alo
4       1       1       1.575000    2.59000     1.48000     0.00000       # Alo
5       1       12      2.100000    0.77000     7.39000     2.68000       # Sit
6       1       12      2.100000    0.85000     1.37000     2.69000       # Sit
7       1       12      2.100000    3.37000     2.90000     2.68000       # Sit
8       1       12      2.100000    2.69000     7.36000     41.32000      # Sit
9       1       12      2.100000    0.13000     2.88000     41.32000      # Sit
10      1       12      2.100000    3.46000     5.85000     2.69000       # Sit
11      1       12      2.100000    2.65000     4.42000     41.31000      # Sit
12      1       12      2.100000    0.04000     -0.07000    41.31000      # Sit
13      1       6       -1.050000   2.24000     1.92000     3.30000       # Ob
14      1       6       -1.050000   0.55000     8.86000     3.29000       # Ob
15      1       6       -1.050000   4.84000     2.41000     3.06000       # Ob
16      1       6       -1.050000   4.85000     6.41000     3.30000       # Ob
17      1       6       -1.050000   1.26000     3.86000     40.70000      # Ob
18      1       6       -1.050000   -1.35000    8.34000     40.70000      # Ob
19      1       6       -1.050000   3.16000     4.39000     3.29000       # Ob
20      1       6       -1.050000   2.95000     5.88000     40.71000      # Ob
21      1       6       -1.050000   0.34000     1.40000     40.71000      # Ob
22      1       6       -1.050000   2.29000     6.89000     3.06000       # Ob
23      1       6       -1.050000   -1.34000    3.38000     40.94000      # Ob
24      1       6       -1.050000   1.21000     7.85000     40.94000      # Ob
25      1       10      -1.050000   0.57000     7.46000     1.06000       # Op
26      1       10      -1.050000   1.00000     1.24000     1.06000       # Op
27      1       9       -1.180833   3.17000     2.98000     1.06000       # Omg
28      1       10      -1.050000   2.88000     7.29000     42.94000      # Op
29      1       9       -1.180833   0.33000     2.81000     42.94000      # Omg
30      1       9       -1.180833   3.61000     5.72000     1.06000       # Omg
31      1       9       -1.180833   2.50000     4.54000     42.94000      # Omg
32      1       10      -1.050000   -0.11000    0.06000     42.94000      # Op
33      1       7       -0.950000   3.57000     0.21000     0.99000       # Oh
34      1       8       -1.080833   1.01000     4.69000     0.99000       # Ohmg
35      1       8       -1.080833   -0.07000    5.58000     43.01000      # Ohmg
36      1       7       -0.950000   2.49000     1.09000     43.01000      # Oh
37      1       2       0.425000    3.31000     8.73000     1.81000       # H
38      1       2       0.425000    0.76000     4.25000     1.81000       # H
39      1       2       0.425000    0.19000     6.01000     42.19000      # H
40      1       2       0.425000    2.74000     1.53000     42.19000      # H
41      1       1       1.575000    5.16000     0.00000     0.00000       # Alo
42      1       1       1.575000    7.77000     4.48000     0.00000       # Alo
43      1       1       1.575000    5.20000     5.97000     0.00000       # Alo
44      1       1       1.575000    7.75000     1.48000     0.00000       # Alo
45      1       12      2.100000    5.93000     7.39000     2.68000       # Sit
46      1       12      2.100000    6.01000     1.37000     2.69000       # Sit
47      1       12      2.100000    8.53000     2.90000     2.68000       # Sit
48      1       12      2.100000    7.85000     7.36000     41.32000      # Sit
49      1       12      2.100000    5.29000     2.88000     41.32000      # Sit
50      1       12      2.100000    8.62000     5.85000     2.69000       # Sit
51      1       12      2.100000    7.81000     4.42000     41.31000      # Sit
52      1       12      2.100000    5.20000     -0.07000    41.31000      # Sit
53      1       6       -1.050000   7.40000     1.92000     3.30000       # Ob
54      1       6       -1.050000   5.71000     8.86000     3.29000       # Ob
55      1       6       -1.050000   10.00000    2.41000     3.06000       # Ob
56      1       6       -1.050000   10.01000    6.41000     3.30000       # Ob
57      1       6       -1.050000   6.42000     3.86000     40.70000      # Ob
58      1       6       -1.050000   3.81000     8.34000     40.70000      # Ob
59      1       6       -1.050000   8.32000     4.39000     3.29000       # Ob
60      1       6       -1.050000   8.11000     5.88000     40.71000      # Ob
61      1       6       -1.050000   5.50000     1.40000     40.71000      # Ob
62      1       6       -1.050000   7.45000     6.89000     3.06000       # Ob
63      1       6       -1.050000   3.82000     3.38000     40.94000      # Ob
64      1       6       -1.050000   6.37000     7.85000     40.94000      # Ob
65      1       10      -1.050000   5.73000     7.46000     1.06000       # Op
66      1       10      -1.050000   6.16000     1.24000     1.06000       # Op
67      1       10      -1.050000   8.33000     2.98000     1.06000       # Op
68      1       10      -1.050000   8.04000     7.29000     42.94000      # Op
69      1       10      -1.050000   5.49000     2.81000     42.94000      # Op
70      1       10      -1.050000   8.77000     5.72000     1.06000       # Op
71      1       10      -1.050000   7.66000     4.54000     42.94000      # Op
72      1       10      -1.050000   5.05000     0.06000     42.94000      # Op
73      1       7       -0.950000   8.73000     0.21000     0.99000       # Oh
74      1       7       -0.950000   6.17000     4.69000     0.99000       # Oh
75      1       7       -0.950000   5.09000     5.58000     43.01000      # Oh
76      1       7       -0.950000   7.65000     1.09000     43.01000      # Oh
77      1       2       0.425000    8.47000     8.73000     1.81000       # H
78      1       2       0.425000    5.92000     4.25000     1.81000       # H
79      1       2       0.425000    5.35000     6.01000     42.19000      # H
80      1       2       0.425000    7.90000     1.53000     42.19000      # H
81      1       1       1.575000    10.32000    0.00000     0.00000       # Alo
82      1       4       1.360000    12.93000    4.48000     0.00000       # Mgo
83      1       1       1.575000    10.36000    5.97000     0.00000       # Alo
84      1       1       1.575000    12.91000    1.48000     0.00000       # Alo
85      1       12      2.100000    11.09000    7.39000     2.68000       # Sit
86      1       12      2.100000    11.17000    1.37000     2.69000       # Sit
87      1       12      2.100000    13.69000    2.90000     2.68000       # Sit
88      1       12      2.100000    13.01000    7.36000     41.32000      # Sit
89      1       12      2.100000    10.45000    2.88000     41.32000      # Sit
90      1       12      2.100000    13.78000    5.85000     2.69000       # Sit
91      1       12      2.100000    12.97000    4.42000     41.31000      # Sit
92      1       12      2.100000    10.36000    -0.07000    41.31000      # Sit
93      1       6       -1.050000   12.56000    1.92000     3.30000       # Ob
94      1       6       -1.050000   10.87000    8.86000     3.29000       # Ob
95      1       6       -1.050000   15.16000    2.41000     3.06000       # Ob
96      1       6       -1.050000   15.17000    6.41000     3.30000       # Ob
97      1       6       -1.050000   11.58000    3.86000     40.70000      # Ob
98      1       6       -1.050000   8.97000     8.34000     40.70000      # Ob
99      1       6       -1.050000   13.48000    4.39000     3.29000       # Ob
100     1       6       -1.050000   13.27000    5.88000     40.71000      # Ob
101     1       6       -1.050000   10.66000    1.40000     40.71000      # Ob
102     1       6       -1.050000   12.61000    6.89000     3.06000       # Ob
103     1       6       -1.050000   8.98000     3.38000     40.94000      # Ob
104     1       6       -1.050000   11.53000    7.85000     40.94000      # Ob
105     1       10      -1.050000   10.89000    7.46000     1.06000       # Op
106     1       10      -1.050000   11.32000    1.24000     1.06000       # Op
107     1       9       -1.180833   13.49000    2.98000     1.06000       # Omg
108     1       10      -1.050000   13.20000    7.29000     42.94000      # Op
109     1       9       -1.180833   10.65000    2.81000     42.94000      # Omg
110     1       9       -1.180833   13.93000    5.72000     1.06000       # Omg
111     1       9       -1.180833   12.82000    4.54000     42.94000      # Omg
112     1       10      -1.050000   10.21000    0.06000     42.94000      # Op
113     1       7       -0.950000   13.89000    0.21000     0.99000       # Oh
114     1       8       -1.080833   11.33000    4.69000     0.99000       # Ohmg
115     1       8       -1.080833   10.25000    5.58000     43.01000      # Ohmg
116     1       7       -0.950000   12.81000    1.09000     43.01000      # Oh
117     1       2       0.425000    13.63000    8.73000     1.81000       # H
118     1       2       0.425000    11.08000    4.25000     1.81000       # H
119     1       2       0.425000    10.51000    6.01000     42.19000      # H
120     1       2       0.425000    13.06000    1.53000     42.19000      # H
121     1       1       1.575000    15.48000    0.00000     0.00000       # Alo
122     1       1       1.575000    18.09000    4.48000     0.00000       # Alo
123     1       1       1.575000    15.52000    5.97000     0.00000       # Alo
124     1       1       1.575000    18.07000    1.48000     0.00000       # Alo
125     1       12      2.100000    16.25000    7.39000     2.68000       # Sit
126     1       12      2.100000    16.33000    1.37000     2.69000       # Sit
127     1       12      2.100000    18.85000    2.90000     2.68000       # Sit
128     1       12      2.100000    18.17000    7.36000     41.32000      # Sit
129     1       12      2.100000    15.61000    2.88000     41.32000      # Sit
130     1       12      2.100000    18.94000    5.85000     2.69000       # Sit
131     1       12      2.100000    18.13000    4.42000     41.31000      # Sit
132     1       12      2.100000    15.52000    -0.07000    41.31000      # Sit
133     1       6       -1.050000   17.72000    1.92000     3.30000       # Ob
134     1       6       -1.050000   16.03000    8.86000     3.29000       # Ob
135     1       6       -1.050000   20.32000    2.41000     3.06000       # Ob
136     1       6       -1.050000   20.33000    6.41000     3.30000       # Ob
137     1       6       -1.050000   16.74000    3.86000     40.70000      # Ob
138     1       6       -1.050000   14.13000    8.34000     40.70000      # Ob
139     1       6       -1.050000   18.64000    4.39000     3.29000       # Ob
140     1       6       -1.050000   18.43000    5.88000     40.71000      # Ob
141     1       6       -1.050000   15.82000    1.40000     40.71000      # Ob
142     1       6       -1.050000   17.77000    6.89000     3.06000       # Ob
143     1       6       -1.050000   14.14000    3.38000     40.94000      # Ob
144     1       6       -1.050000   16.69000    7.85000     40.94000      # Ob
145     1       10      -1.050000   16.05000    7.46000     1.06000       # Op
146     1       10      -1.050000   16.48000    1.24000     1.06000       # Op
147     1       10      -1.050000   18.65000    2.98000     1.06000       # Op
148     1       10      -1.050000   18.36000    7.29000     42.94000      # Op
149     1       10      -1.050000   15.81000    2.81000     42.94000      # Op
150     1       10      -1.050000   19.09000    5.72000     1.06000       # Op
151     1       10      -1.050000   17.98000    4.54000     42.94000      # Op
152     1       10      -1.050000   15.37000    0.06000     42.94000      # Op
153     1       8       -1.080833   19.05000    0.21000     0.99000       # Ohmg
154     1       7       -0.950000   16.49000    4.69000     0.99000       # Oh
155     1       7       -0.950000   15.41000    5.58000     43.01000      # Oh
156     1       8       -1.080833   17.97000    1.09000     43.01000      # Ohmg
157     1       2       0.425000    18.79000    8.73000     1.81000       # H
158     1       2       0.425000    16.24000    4.25000     1.81000       # H
159     1       2       0.425000    15.67000    6.01000     42.19000      # H
160     1       2       0.425000    18.22000    1.53000     42.19000      # H
161     1       4       1.360000    20.64000    0.00000     0.00000       # Mgo
162     1       1       1.575000    23.25000    4.48000     0.00000       # Alo
163     1       1       1.575000    20.68000    5.97000     0.00000       # Alo
164     1       1       1.575000    23.23000    1.48000     0.00000       # Alo
165     1       12      2.100000    21.41000    7.39000     2.68000       # Sit
166     1       12      2.100000    21.49000    1.37000     2.69000       # Sit
167     1       12      2.100000    24.01000    2.90000     2.68000       # Sit
168     1       12      2.100000    23.33000    7.36000     41.32000      # Sit
169     1       12      2.100000    20.77000    2.88000     41.32000      # Sit
170     1       12      2.100000    24.10000    5.85000     2.69000       # Sit
171     1       12      2.100000    23.29000    4.42000     41.31000      # Sit
172     1       12      2.100000    20.68000    -0.07000    41.31000      # Sit
173     1       6       -1.050000   22.88000    1.92000     3.30000       # Ob
174     1       6       -1.050000   21.19000    8.86000     3.29000       # Ob
175     1       6       -1.050000   25.48000    2.41000     3.06000       # Ob
176     1       6       -1.050000   25.49000    6.41000     3.30000       # Ob
177     1       6       -1.050000   21.90000    3.86000     40.70000      # Ob
178     1       6       -1.050000   19.29000    8.34000     40.70000      # Ob
179     1       6       -1.050000   23.80000    4.39000     3.29000       # Ob
180     1       6       -1.050000   23.59000    5.88000     40.71000      # Ob
181     1       6       -1.050000   20.98000    1.40000     40.71000      # Ob
182     1       6       -1.050000   22.93000    6.89000     3.06000       # Ob
183     1       6       -1.050000   19.30000    3.38000     40.94000      # Ob
184     1       6       -1.050000   21.85000    7.85000     40.94000      # Ob
185     1       10      -1.050000   21.21000    7.46000     1.06000       # Op
186     1       9       -1.180833   21.64000    1.24000     1.06000       # Omg
187     1       10      -1.050000   23.81000    2.98000     1.06000       # Op
188     1       9       -1.180833   23.52000    7.29000     42.94000      # Omg
189     1       10      -1.050000   20.97000    2.81000     42.94000      # Op
190     1       10      -1.050000   24.25000    5.72000     1.06000       # Op
191     1       10      -1.050000   23.14000    4.54000     42.94000      # Op
192     1       9       -1.180833   20.53000    0.06000     42.94000      # Omg
193     1       7       -0.950000   24.21000    0.21000     0.99000       # Oh
194     1       7       -0.950000   21.65000    4.69000     0.99000       # Oh
195     1       7       -0.950000   20.57000    5.58000     43.01000      # Oh
196     1       7       -0.950000   23.13000    1.09000     43.01000      # Oh
197     1       2       0.425000    23.95000    8.73000     1.81000       # H
198     1       2       0.425000    21.40000    4.25000     1.81000       # H
199     1       2       0.425000    20.83000    6.01000     42.19000      # H
200     1       2       0.425000    23.38000    1.53000     42.19000      # H
201     1       1       1.575000    25.80000    0.00000     0.00000       # Alo
202     1       1       1.575000    28.41000    4.48000     0.00000       # Alo
203     1       1       1.575000    25.84000    5.97000     0.00000       # Alo
204     1       1       1.575000    28.39000    1.48000     0.00000       # Alo
205     1       12      2.100000    26.57000    7.39000     2.68000       # Sit
206     1       12      2.100000    26.65000    1.37000     2.69000       # Sit
207     1       12      2.100000    29.17000    2.90000     2.68000       # Sit
208     1       12      2.100000    28.49000    7.36000     41.32000      # Sit
209     1       12      2.100000    25.93000    2.88000     41.32000      # Sit
210     1       12      2.100000    29.26000    5.85000     2.69000       # Sit
211     1       12      2.100000    28.45000    4.42000     41.31000      # Sit
212     1       12      2.100000    25.84000    -0.07000    41.31000      # Sit
213     1       6       -1.050000   28.04000    1.92000     3.30000       # Ob
214     1       6       -1.050000   26.35000    8.86000     3.29000       # Ob
215     1       6       -1.050000   30.64000    2.41000     3.06000       # Ob
216     1       6       -1.050000   30.65000    6.41000     3.30000       # Ob
217     1       6       -1.050000   27.06000    3.86000     40.70000      # Ob
218     1       6       -1.050000   24.45000    8.34000     40.70000      # Ob
219     1       6       -1.050000   28.96000    4.39000     3.29000       # Ob
220     1       6       -1.050000   28.75000    5.88000     40.71000      # Ob
221     1       6       -1.050000   26.14000    1.40000     40.71000      # Ob
222     1       6       -1.050000   28.09000    6.89000     3.06000       # Ob
223     1       6       -1.050000   24.46000    3.38000     40.94000      # Ob
224     1       6       -1.050000   27.01000    7.85000     40.94000      # Ob
225     1       9       -1.180833   26.37000    7.46000     1.06000       # Omg
226     1       10      -1.050000   26.80000    1.24000     1.06000       # Op
227     1       10      -1.050000   28.97000    2.98000     1.06000       # Op
228     1       10      -1.050000   28.68000    7.29000     42.94000      # Op
229     1       10      -1.050000   26.13000    2.81000     42.94000      # Op
230     1       10      -1.050000   29.41000    5.72000     1.06000       # Op
231     1       10      -1.050000   28.30000    4.54000     42.94000      # Op
232     1       10      -1.050000   25.69000    0.06000     42.94000      # Op
233     1       7       -0.950000   29.37000    0.21000     0.99000       # Oh
234     1       7       -0.950000   26.81000    4.69000     0.99000       # Oh
235     1       7       -0.950000   25.73000    5.58000     43.01000      # Oh
236     1       7       -0.950000   28.29000    1.09000     43.01000      # Oh
237     1       2       0.425000    29.11000    8.73000     1.81000       # H
238     1       2       0.425000    26.56000    4.25000     1.81000       # H
239     1       2       0.425000    25.99000    6.01000     42.19000      # H
240     1       2       0.425000    28.54000    1.53000     42.19000      # H
241     1       1       1.575000    30.96000    0.00000     0.00000       # Alo
242     1       1       1.575000    33.57000    4.48000     0.00000       # Alo
243     1       1       1.575000    31.00000    5.97000     0.00000       # Alo
244     1       1       1.575000    33.55000    1.48000     0.00000       # Alo
245     1       12      2.100000    31.73000    7.39000     2.68000       # Sit
246     1       12      2.100000    31.81000    1.37000     2.69000       # Sit
247     1       12      2.100000    34.33000    2.90000     2.68000       # Sit
248     1       12      2.100000    33.65000    7.36000     41.32000      # Sit
249     1       12      2.100000    31.09000    2.88000     41.32000      # Sit
250     1       12      2.100000    34.42000    5.85000     2.69000       # Sit
251     1       12      2.100000    33.61000    4.42000     41.31000      # Sit
252     1       12      2.100000    31.00000    -0.07000    41.31000      # Sit
253     1       6       -1.050000   33.20000    1.92000     3.30000       # Ob
254     1       6       -1.050000   31.51000    8.86000     3.29000       # Ob
255     1       6       -1.050000   35.80000    2.41000     3.06000       # Ob
256     1       6       -1.050000   35.81000    6.41000     3.30000       # Ob
257     1       6       -1.050000   32.22000    3.86000     40.70000      # Ob
258     1       6       -1.050000   29.61000    8.34000     40.70000      # Ob
259     1       6       -1.050000   34.12000    4.39000     3.29000       # Ob
260     1       6       -1.050000   33.91000    5.88000     40.71000      # Ob
261     1       6       -1.050000   31.30000    1.40000     40.71000      # Ob
262     1       6       -1.050000   33.25000    6.89000     3.06000       # Ob
263     1       6       -1.050000   29.62000    3.38000     40.94000      # Ob
264     1       6       -1.050000   32.17000    7.85000     40.94000      # Ob
265     1       10      -1.050000   31.53000    7.46000     1.06000       # Op
266     1       10      -1.050000   31.96000    1.24000     1.06000       # Op
267     1       10      -1.050000   34.13000    2.98000     1.06000       # Op
268     1       9       -1.180833   33.84000    7.29000     42.94000      # Omg
269     1       10      -1.050000   31.29000    2.81000     42.94000      # Op
270     1       9       -1.180833   34.57000    5.72000     1.06000       # Omg
271     1       9       -1.180833   33.46000    4.54000     42.94000      # Omg
272     1       10      -1.050000   30.85000    0.06000     42.94000      # Op
273     1       8       -1.080833   34.53000    0.21000     0.99000       # Ohmg
274     1       7       -0.950000   31.97000    4.69000     0.99000       # Oh
275     1       7       -0.950000   30.89000    5.58000     43.01000      # Oh
276     1       8       -1.080833   33.45000    1.09000     43.01000      # Ohmg
277     1       2       0.425000    34.27000    8.73000     1.81000       # H
278     1       2       0.425000    31.72000    4.25000     1.81000       # H
279     1       2       0.425000    31.15000    6.01000     42.19000      # H
280     1       2       0.425000    33.70000    1.53000     42.19000      # H
281     1       4       1.360000    36.12000    0.00000     0.00000       # Mgo
282     1       1       1.575000    38.73000    4.48000     0.00000       # Alo
283     1       4       1.360000    36.16000    5.97000     0.00000       # Mgo
284     1       1       1.575000    38.71000    1.48000     0.00000       # Alo
285     1       12      2.100000    36.89000    7.39000     2.68000       # Sit
286     1       12      2.100000    36.97000    1.37000     2.69000       # Sit
287     1       12      2.100000    39.49000    2.90000     2.68000       # Sit
288     1       12      2.100000    38.81000    7.36000     41.32000      # Sit
289     1       12      2.100000    36.25000    2.88000     41.32000      # Sit
290     1       12      2.100000    39.58000    5.85000     2.69000       # Sit
291     1       12      2.100000    38.77000    4.42000     41.31000      # Sit
292     1       12      2.100000    36.16000    -0.07000    41.31000      # Sit
293     1       6       -1.050000   38.36000    1.92000     3.30000       # Ob
294     1       6       -1.050000   36.67000    8.86000     3.29000       # Ob
295     1       6       -1.050000   40.96000    2.41000     3.06000       # Ob
296     1       6       -1.050000   40.97000    6.41000     3.30000       # Ob
297     1       6       -1.050000   37.38000    3.86000     40.70000      # Ob
298     1       6       -1.050000   34.77000    8.34000     40.70000      # Ob
299     1       6       -1.050000   39.28000    4.39000     3.29000       # Ob
300     1       6       -1.050000   39.07000    5.88000     40.71000      # Ob
301     1       6       -1.050000   36.46000    1.40000     40.71000      # Ob
302     1       6       -1.050000   38.41000    6.89000     3.06000       # Ob
303     1       6       -1.050000   34.78000    3.38000     40.94000      # Ob
304     1       6       -1.050000   37.33000    7.85000     40.94000      # Ob
305     1       9       -1.180833   36.69000    7.46000     1.06000       # Omg
306     1       9       -1.180833   37.12000    1.24000     1.06000       # Omg
307     1       10      -1.050000   39.29000    2.98000     1.06000       # Op
308     1       10      -1.050000   39.00000    7.29000     42.94000      # Op
309     1       10      -1.050000   36.45000    2.81000     42.94000      # Op
310     1       10      -1.050000   39.73000    5.72000     1.06000       # Op
311     1       10      -1.050000   38.62000    4.54000     42.94000      # Op
312     1       9       -1.180833   36.01000    0.06000     42.94000      # Omg
313     1       7       -0.950000   39.69000    0.21000     0.99000       # Oh
314     1       8       -1.080833   37.13000    4.69000     0.99000       # Ohmg
315     1       8       -1.080833   36.05000    5.58000     43.01000      # Ohmg
316     1       7       -0.950000   38.61000    1.09000     43.01000      # Oh
317     1       2       0.425000    39.43000    8.73000     1.81000       # H
318     1       2       0.425000    36.88000    4.25000     1.81000       # H
319     1       2       0.425000    36.31000    6.01000     42.19000      # H
320     1       2       0.425000    38.86000    1.53000     42.19000      # H
321     1       1       1.575000    41.34000    8.97000     0.00000       # Alo
322     1       1       1.575000    2.67000     13.45000    0.00000       # Alo
323     1       1       1.575000    0.10000     14.93000    0.00000       # Alo
324     1       1       1.575000    2.65000     10.44000    0.00000       # Alo
325     1       12      2.100000    0.82000     16.35000    2.68000       # Sit
326     1       12      2.100000    0.91000     10.33000    2.69000       # Sit
327     1       12      2.100000    3.43000     11.86000    2.68000       # Sit
328     1       12      2.100000    2.75000     16.33000    41.32000      # Sit
329     1       12      2.100000    0.19000     11.84000    41.32000      # Sit
330     1       12      2.100000    3.52000     14.81000    2.69000       # Sit
331     1       12      2.100000    2.71000     13.38000    41.31000      # Sit
332     1       12      2.100000    0.10000     8.89000     41.31000      # Sit
333     1       6       -1.050000   2.30000     10.88000    3.30000       # Ob
334     1       6       -1.050000   0.61000     17.83000    3.29000       # Ob
335     1       6       -1.050000   4.90000     11.37000    3.06000       # Ob
336     1       6       -1.050000   4.91000     15.37000    3.30000       # Ob
337     1       6       -1.050000   1.32000     12.82000    40.70000      # Ob
338     1       6       -1.050000   -1.29000    17.31000    40.70000      # Ob
339     1       6       -1.050000   3.22000     13.35000    3.29000       # Ob
340     1       6       -1.050000   3.01000     14.84000    40.71000      # Ob
341     1       6       -1.050000   0.40000     10.36000    40.71000      # Ob
342     1       6       -1.050000   2.35000     15.85000    3.06000       # Ob
343     1       6       -1.050000   -1.28000    12.34000    40.94000      # Ob
344     1       6       -1.050000   1.27000     16.82000    40.94000      # Ob
345     1       9       -1.180833   0.63000     16.43000    1.06000       # Omg
346     1       10      -1.050000   1.06000     10.20000    1.06000       # Op
347     1       10      -1.050000   3.23000     11.94000    1.06000       # Op
348     1       10      -1.050000   2.93000     16.25000    42.94000      # Op
349     1       10      -1.050000   0.39000     11.77000    42.94000      # Op
350     1       10      -1.050000   3.67000     14.68000    1.06000       # Op
351     1       10      -1.050000   2.56000     13.50000    42.94000      # Op
352     1       10      -1.050000   -0.05000    9.02000     42.94000      # Op
353     1       7       -0.950000   3.63000     9.17000     0.99000       # Oh
354     1       7       -0.950000   1.07000     13.65000    0.99000       # Oh
355     1       7       -0.950000   -0.01000    14.54000    43.01000      # Oh
356     1       7       -0.950000   2.55000     10.05000    43.01000      # Oh
357     1       2       0.425000    3.37000     17.70000    1.81000       # H
358     1       2       0.425000    0.82000     13.21000    1.81000       # H
359     1       2       0.425000    0.25000     14.97000    42.19000      # H
360     1       2       0.425000    2.80000     10.49000    42.19000      # H
361     1       1       1.575000    5.22000     8.97000     0.00000       # Alo
362     1       1       1.575000    7.83000     13.45000    0.00000       # Alo
363     1       1       1.575000    5.26000     14.93000    0.00000       # Alo
364     1       4       1.360000    7.81000     10.44000    0.00000       # Mgo
365     1       12      2.100000    5.98000     16.35000    2.68000       # Sit
366     1       12      2.100000    6.07000     10.33000    2.69000       # Sit
367     1       12      2.100000    8.59000     11.86000    2.68000       # Sit
368     1       12      2.100000    7.91000     16.33000    41.32000      # Sit
369     1       12      2.100000    5.35000     11.84000    41.32000      # Sit
370     1       12      2.100000    8.68000     14.81000    2.69000       # Sit