LAMMPS data file generated by atomipy on 2026-02-16 13:14:03
# Total charge of the system is -0.000000
# Hw-Ow-Hw

5967 atoms
2282 bonds
12229 angles
0 dihedrals
0 impropers

12 atom types
3 bond types
36 angle types
0 dihedral types
0 improper types

0.0 31.15080 xlo xhi
0.0 36.06120 ylo yhi
0.0 61.00000 zlo zhi
0.00000 0.00000 0.00000 xy xz yz

Masses

1 26.98200  # Alo
2 1.00784  # H
3 1.00784  # Hw
4 24.30500  # Mgo
5 22.98980  # Na
6 15.99940  # Ob
7 15.99940  # Oh
8 15.99940  # Ohmg
9 15.99940  # Omg
10 15.99940  # Op
11 15.99940  # Ow
12 28.08500  # Sit

Pair Coeffs

1 0.11279 1.46158  # Alo
2 0.00000 0.00000  # H
3 0.00000 0.00000  # Hw -> HW_opc3
4 0.17136 1.98028  # Mgo
5 0.03012 2.61746  # Na -> Na+
6 0.16341 3.17427  # Ob
7 0.16341 3.17427  # Oh
8 0.16341 3.17427  # Ohmg
9 0.16341 3.17427  # Omg
10 0.16341 3.17427  # Op
11 0.16341 3.17427  # Ow -> OW_opc3
12 0.10951 0.93467  # Sit

Atoms

1       1       12      1.884000    4.05000     0.64000     17.82000      # Sit
2       1       12      1.884000    1.52000     2.18000     17.82000      # Sit
3       1       12      1.884000    1.46000     5.15000     17.82000      # Sit
4       1       12      1.884000    4.12000     6.69000     17.82000      # Sit
5       1       6       -0.942000   5.21000     1.71000     17.38000      # Ob
6       1       6       -0.942000   2.64000     1.17000     17.16000      # Ob
7       1       6       -0.942000   1.77000     3.67000     17.17000      # Ob
8       1       6       -0.942000   2.61000     6.21000     17.38000      # Ob
9       1       6       -0.942000   5.23000     5.68000     17.16000      # Ob
10      1       6       -0.942000   4.37000     8.18000     17.17000      # Ob
11      1       4       1.562000    2.30000     0.75000     20.53000      # Mgo
12      1       1       1.782000    2.30000     3.75000     20.53000      # Alo
13      1       1       1.782000    4.90000     5.26000     20.53000      # Alo
14      1       1       1.782000    4.89000     8.26000     20.53000      # Alo
15      1       9       -1.195000   3.91000     0.51000     19.46000      # Omg
16      1       9       -1.195000   1.70000     2.24000     19.46000      # Omg
17      1       9       -1.195000   2.90000     2.27000     21.59000      # Omg
18      1       8       -1.124000   0.68000     0.57000     21.53000      # Ohmg
19      1       9       -1.195000   1.31000     5.02000     19.46000      # Omg
20      1       7       -0.994000   3.92000     3.94000     19.53000      # Oh
21      1       7       -0.994000   3.27000     5.07000     21.53000      # Oh
22      1       10      -1.065000   5.88000     4.00000     21.59000      # Op
23      1       10      -1.065000   4.30000     6.75000     19.46000      # Op
24      1       8       -1.124000   6.52000     8.45000     19.53000      # Ohmg
25      1       10      -1.065000   5.49000     6.77000     21.59000      # Op
26      1       9       -1.195000   3.29000     8.50000     21.59000      # Omg
27      1       2       0.400000    0.07000     1.27000     21.56000      # H
28      1       2       0.400000    4.34000     3.17000     19.26000      # H
29      1       2       0.400000    2.81000     5.82000     21.80000      # H
30      1       2       0.400000    6.94000     7.72000     19.16000      # H
31      1       12      1.884000    3.07000     2.33000     23.23000      # Sit
32      1       12      1.884000    5.74000     3.87000     23.23000      # Sit
33      1       12      1.884000    5.67000     6.83000     23.23000      # Sit
34      1       12      1.884000    3.14000     8.38000     23.23000      # Sit
35      1       6       -0.942000   2.83000     0.84000     23.88000      # Ob
36      1       6       -0.942000   1.96000     3.34000     23.89000      # Ob
37      1       6       -0.942000   4.58000     2.80000     23.68000      # Ob
38      1       6       -0.942000   5.42000     5.34000     23.88000      # Ob
39      1       6       -0.942000   4.56000     7.85000     23.89000      # Ob
40      1       6       -0.942000   1.99000     7.31000     23.68000      # Ob
41      1       12      1.884000    4.05000     9.65000     17.82000      # Sit
42      1       12      1.884000    1.52000     11.20000    17.82000      # Sit
43      1       12      1.884000    1.46000     14.16000    17.82000      # Sit
44      1       12      1.884000    4.12000     15.70000    17.82000      # Sit
45      1       6       -0.942000   5.21000     10.72000    17.38000      # Ob
46      1       6       -0.942000   2.64000     10.18000    17.16000      # Ob
47      1       6       -0.942000   1.77000     12.69000    17.17000      # Ob
48      1       6       -0.942000   2.61000     15.23000    17.38000      # Ob
49      1       6       -0.942000   5.23000     14.69000    17.16000      # Ob
50      1       6       -0.942000   4.37000     17.19000    17.17000      # Ob
51      1       4       1.562000    2.30000     9.77000     20.53000      # Mgo
52      1       1       1.782000    2.30000     12.77000    20.53000      # Alo
53      1       4       1.562000    4.90000     14.28000    20.53000      # Mgo
54      1       1       1.782000    4.89000     17.28000    20.53000      # Alo
55      1       9       -1.195000   3.91000     9.53000     19.46000      # Omg
56      1       9       -1.195000   1.70000     11.26000    19.46000      # Omg
57      1       9       -1.195000   2.90000     11.28000    21.59000      # Omg
58      1       8       -1.124000   0.68000     9.58000     21.53000      # Ohmg
59      1       10      -1.065000   1.31000     14.04000    19.46000      # Op
60      1       8       -1.124000   3.92000     12.96000    19.53000      # Ohmg
61      1       8       -1.124000   3.27000     14.09000    21.53000      # Ohmg
62      1       9       -1.195000   5.88000     13.01000    21.59000      # Omg
63      1       9       -1.195000   4.30000     15.76000    19.46000      # Omg
64      1       8       -1.124000   6.52000     17.47000    19.53000      # Ohmg
65      1       9       -1.195000   5.49000     15.79000    21.59000      # Omg
66      1       9       -1.195000   3.29000     17.52000    21.59000      # Omg
67      1       2       0.400000    0.00000     10.21000    21.40000      # H
68      1       2       0.400000    4.37000     12.19000    19.27000      # H
69      1       2       0.400000    2.85000     14.87000    21.77000      # H
70      1       2       0.400000    6.95000     16.70000    19.25000      # H
71      1       12      1.884000    3.07000     11.34000    23.23000      # Sit
72      1       12      1.884000    5.74000     12.88000    23.23000      # Sit
73      1       12      1.884000    5.67000     15.85000    23.23000      # Sit
74      1       12      1.884000    3.14000     17.39000    23.23000      # Sit
75      1       6       -0.942000   2.83000     9.85000     23.88000      # Ob
76      1       6       -0.942000   1.96000     12.35000    23.89000      # Ob
77      1       6       -0.942000   4.58000     11.82000    23.68000      # Ob
78      1       6       -0.942000   5.42000     14.36000    23.88000      # Ob
79      1       6       -0.942000   4.56000     16.86000    23.89000      # Ob
80      1       6       -0.942000   1.99000     16.32000    23.68000      # Ob
81      1       12      1.884000    4.05000     18.67000    17.82000      # Sit
82      1       12      1.884000    1.52000     20.21000    17.82000      # Sit
83      1       12      1.884000    1.46000     23.18000    17.82000      # Sit
84      1       12      1.884000    4.12000     24.72000    17.82000      # Sit
85      1       6       -0.942000   5.21000     19.74000    17.38000      # Ob
86      1       6       -0.942000   2.64000     19.20000    17.16000      # Ob
87      1       6       -0.942000   1.77000     21.70000    17.17000      # Ob
88      1       6       -0.942000   2.61000     24.24000    17.38000      # Ob
89      1       6       -0.942000   5.23000     23.71000    17.16000      # Ob
90      1       6       -0.942000   4.37000     26.21000    17.17000      # Ob
91      1       4       1.562000    2.30000     18.78000    20.53000      # Mgo
92      1       1       1.782000    2.30000     21.79000    20.53000      # Alo
93      1       4       1.562000    4.90000     23.29000    20.53000      # Mgo
94      1       1       1.782000    4.89000     26.29000    20.53000      # Alo
95      1       9       -1.195000   3.91000     18.54000    19.46000      # Omg
96      1       9       -1.195000   1.70000     20.27000    19.46000      # Omg
97      1       9       -1.195000   2.90000     20.30000    21.59000      # Omg
98      1       8       -1.124000   0.68000     18.60000    21.53000      # Ohmg
99      1       10      -1.065000   1.31000     23.05000    19.46000      # Op
100     1       8       -1.124000   3.92000     21.97000    19.53000      # Ohmg
101     1       8       -1.124000   3.27000     23.10000    21.53000      # Ohmg
102     1       9       -1.195000   5.88000     22.03000    21.59000      # Omg
103     1       9       -1.195000   4.30000     24.78000    19.46000      # Omg
104     1       7       -0.994000   6.52000     26.48000    19.53000      # Oh
105     1       9       -1.195000   5.49000     24.81000    21.59000      # Omg
106     1       9       -1.195000   3.29000     26.53000    21.59000      # Omg
107     1       2       0.400000    0.23000     19.37000    21.79000      # H
108     1       2       0.400000    4.36000     21.20000    19.27000      # H
109     1       2       0.400000    2.83000     23.87000    21.76000      # H
110     1       2       0.400000    6.94000     25.70000    19.27000      # H
111     1       12      1.884000    3.07000     20.36000    23.23000      # Sit
112     1       12      1.884000    5.74000     21.90000    23.23000      # Sit
113     1       12      1.884000    5.67000     24.87000    23.23000      # Sit
114     1       12      1.884000    3.14000     26.41000    23.23000      # Sit
115     1       6       -0.942000   2.83000     18.87000    23.88000      # Ob
116     1       6       -0.942000   1.96000     21.37000    23.89000      # Ob
117     1       6       -0.942000   4.58000     20.83000    23.68000      # Ob
118     1       6       -0.942000   5.42000     23.37000    23.88000      # Ob
119     1       6       -0.942000   4.56000     25.88000    23.89000      # Ob
120     1       6       -0.942000   1.99000     25.34000    23.68000      # Ob
121     1       12      1.884000    4.05000     27.69000    17.82000      # Sit
122     1       12      1.884000    1.52000     29.23000    17.82000      # Sit
123     1       12      1.884000    1.46000     32.19000    17.82000      # Sit
124     1       12      1.884000    4.12000     33.73000    17.82000      # Sit
125     1       6       -0.942000   5.21000     28.75000    17.38000      # Ob
126     1       6       -0.942000   2.64000     28.22000    17.16000      # Ob
127     1       6       -0.942000   1.77000     30.72000    17.17000      # Ob
128     1       6       -0.942000   2.61000     33.26000    17.38000      # Ob
129     1       6       -0.942000   5.23000     32.72000    17.16000      # Ob
130     1       6       -0.942000   4.37000     35.23000    17.17000      # Ob
131     1       4       1.562000    2.30000     27.80000    20.53000      # Mgo
132     1       1       1.782000    2.30000     30.80000    20.53000      # Alo
133     1       4       1.562000    4.90000     32.31000    20.53000      # Mgo
134     1       1       1.782000    4.89000     35.31000    20.53000      # Alo
135     1       9       -1.195000   3.91000     27.56000    19.46000      # Omg
136     1       9       -1.195000   1.70000     29.29000    19.46000      # Omg
137     1       9       -1.195000   2.90000     29.31000    21.59000      # Omg
138     1       8       -1.124000   0.68000     27.61000    21.53000      # Ohmg
139     1       9       -1.195000   1.31000     32.07000    19.46000      # Omg
140     1       8       -1.124000   3.92000     30.99000    19.53000      # Ohmg
141     1       8       -1.124000   3.27000     32.12000    21.53000      # Ohmg
142     1       9       -1.195000   5.88000     31.04000    21.59000      # Omg
143     1       9       -1.195000   4.30000     33.79000    19.46000      # Omg
144     1       8       -1.124000   6.52000     35.50000    19.53000      # Ohmg
145     1       9       -1.195000   5.49000     33.82000    21.59000      # Omg
146     1       9       -1.195000   3.29000     35.55000    21.59000      # Omg
147     1       2       0.400000    0.08000     28.33000    21.53000      # H
148     1       2       0.400000    4.36000     30.21000    19.30000      # H
149     1       2       0.400000    2.82000     32.88000    21.80000      # H
150     1       2       0.400000    7.11000     34.78000    19.51000      # H
151     1       12      1.884000    3.07000     29.37000    23.23000      # Sit
152     1       12      1.884000    5.74000     30.91000    23.23000      # Sit
153     1       12      1.884000    5.67000     33.88000    23.23000      # Sit
154     1       12      1.884000    3.14000     35.42000    23.23000      # Sit
155     1       6       -0.942000   2.83000     27.88000    23.88000      # Ob
156     1       6       -0.942000   1.96000     30.38000    23.89000      # Ob
157     1       6       -0.942000   4.58000     29.85000    23.68000      # Ob
158     1       6       -0.942000   5.42000     32.39000    23.88000      # Ob
159     1       6       -0.942000   4.56000     34.89000    23.89000      # Ob
160     1       6       -0.942000   1.99000     34.35000    23.68000      # Ob
161     1       12      1.884000    9.24000     0.64000     17.82000      # Sit
162     1       12      1.884000    6.72000     2.18000     17.82000      # Sit
163     1       12      1.884000    6.65000     5.15000     17.82000      # Sit
164     1       12      1.884000    9.31000     6.69000     17.82000      # Sit
165     1       6       -0.942000   10.40000    1.71000     17.38000      # Ob
166     1       6       -0.942000   7.83000     1.17000     17.16000      # Ob
167     1       6       -0.942000   6.96000     3.67000     17.17000      # Ob
168     1       6       -0.942000   7.80000     6.21000     17.38000      # Ob
169     1       6       -0.942000   10.42000    5.68000     17.16000      # Ob
170     1       6       -0.942000   9.56000     8.18000     17.17000      # Ob
171     1       4       1.562000    7.49000     0.75000     20.53000      # Mgo
172     1       1       1.782000    7.49000     3.75000     20.53000      # Alo
173     1       1       1.782000    10.09000    5.26000     20.53000      # Alo
174     1       1       1.782000    10.09000    8.26000     20.53000      # Alo
175     1       9       -1.195000   9.10000     0.51000     19.46000      # Omg
176     1       9       -1.195000   6.89000     2.24000     19.46000      # Omg
177     1       9       -1.195000   8.09000     2.27000     21.59000      # Omg
178     1       8       -1.124000   5.87000     0.57000     21.53000      # Ohmg
179     1       10      -1.065000   6.50000     5.02000     19.46000      # Op
180     1       7       -0.994000   9.12000     3.94000     19.53000      # Oh
181     1       7       -0.994000   8.46000     5.07000     21.53000      # Oh
182     1       10      -1.065000   11.08000    4.00000     21.59000      # Op
183     1       10      -1.065000   9.49000     6.75000     19.46000      # Op
184     1       7       -0.994000   11.71000    8.45000     19.53000      # Oh
185     1       10      -1.065000   10.69000    6.77000     21.59000      # Op
186     1       9       -1.195000   8.48000     8.50000     21.59000      # Omg
187     1       2       0.400000    5.19000     1.20000     21.46000      # H
188     1       2       0.400000    9.53000     3.19000     19.20000      # H
189     1       2       0.400000    8.02000     5.83000     21.79000      # H
190     1       2       0.400000    12.14000    7.72000     19.17000      # H
191     1       12      1.884000    8.27000     2.33000     23.23000      # Sit
192     1       12      1.884000    10.93000    3.87000     23.23000      # Sit
193     1       12      1.884000    10.86000    6.83000     23.23000      # Sit
194     1       12      1.884000    8.33000     8.38000     23.23000      # Sit
195     1       6       -0.942000   8.02000     0.84000     23.88000      # Ob
196     1       6       -0.942000   7.15000     3.34000     23.89000      # Ob
197     1       6       -0.942000   9.77000     2.80000     23.68000      # Ob
198     1       6       -0.942000   10.62000    5.34000     23.88000      # Ob
199     1       6       -0.942000   9.75000     7.85000     23.89000      # Ob
200     1       6       -0.942000   7.18000     7.31000     23.68000      # Ob
201     1       12      1.884000    9.24000     9.65000     17.82000      # Sit
202     1       12      1.884000    6.72000     11.20000    17.82000      # Sit
203     1       12      1.884000    6.65000     14.16000    17.82000      # Sit
204     1       12      1.884000    9.31000     15.70000    17.82000      # Sit
205     1       6       -0.942000   10.40000    10.72000    17.38000      # Ob
206     1       6       -0.942000   7.83000     10.18000    17.16000      # Ob
207     1       6       -0.942000   6.96000     12.69000    17.17000      # Ob
208     1       6       -0.942000   7.80000     15.23000    17.38000      # Ob
209     1       6       -0.942000   10.42000    14.69000    17.16000      # Ob
210     1       6       -0.942000   9.56000     17.19000    17.17000      # Ob
211     1       4       1.562000    7.49000     9.77000     20.53000      # Mgo
212     1       1       1.782000    7.49000     12.77000    20.53000      # Alo
213     1       4       1.562000    10.09000    14.28000    20.53000      # Mgo
214     1       1       1.782000    10.09000    17.28000    20.53000      # Alo
215     1       9       -1.195000   9.10000     9.53000     19.46000      # Omg
216     1       9       -1.195000   6.89000     11.26000    19.46000      # Omg
217     1       9       -1.195000   8.09000     11.28000    21.59000      # Omg
218     1       8       -1.124000   5.87000     9.58000     21.53000      # Ohmg
219     1       9       -1.195000   6.50000     14.04000    19.46000      # Omg
220     1       8       -1.124000   9.12000     12.96000    19.53000      # Ohmg
221     1       8       -1.124000   8.46000     14.09000    21.53000      # Ohmg
222     1       9       -1.195000   11.08000    13.01000    21.59000      # Omg
223     1       9       -1.195000   9.49000     15.76000    19.46000      # Omg
224     1       7       -0.994000   11.71000    17.47000    19.53000      # Oh
225     1       9       -1.195000   10.69000    15.79000    21.59000      # Omg
226     1       9       -1.195000   8.48000     17.52000    21.59000      # Omg
227     1       2       0.400000    5.41000     10.35000    21.71000      # H
228     1       2       0.400000    9.53000     12.22000    19.18000      # H
229     1       2       0.400000    8.01000     14.87000    21.70000      # H
230     1       2       0.400000    12.14000    16.70000    19.24000      # H
231     1       12      1.884000    8.27000     11.34000    23.23000      # Sit
232     1       12      1.884000    10.93000    12.88000    23.23000      # Sit
233     1       12      1.884000    10.86000    15.85000    23.23000      # Sit
234     1       12      1.884000    8.33000     17.39000    23.23000      # Sit
235     1       6       -0.942000   8.02000     9.85000     23.88000      # Ob
236     1       6       -0.942000   7.15000     12.35000    23.89000      # Ob
237     1       6       -0.942000   9.77000     11.82000    23.68000      # Ob
238     1       6       -0.942000   10.62000    14.36000    23.88000      # Ob
239     1       6       -0.942000   9.75000     16.86000    23.89000      # Ob
240     1       6       -0.942000   7.18000     16.32000    23.68000      # Ob
241     1       12      1.884000    9.24000     18.67000    17.82000      # Sit
242     1       12      1.884000    6.72000     20.21000    17.82000      # Sit
243     1       12      1.884000    6.65000     23.18000    17.82000      # Sit
244     1       12      1.884000    9.31000     24.72000    17.82000      # Sit
245     1       6       -0.942000   10.40000    19.74000    17.38000      # Ob
246     1       6       -0.942000   7.83000     19.20000    17.16000      # Ob
247     1       6       -0.942000   6.96000     21.70000    17.17000      # Ob
248     1       6       -0.942000   7.80000     24.24000    17.38000      # Ob
249     1       6       -0.942000   10.42000    23.71000    17.16000      # Ob
250     1       6       -0.942000   9.56000     26.21000    17.17000      # Ob
251     1       4       1.562000    7.49000     18.78000    20.53000      # Mgo
252     1       1       1.782000    7.49000     21.79000    20.53000      # Alo
253     1       1       1.782000    10.09000    23.29000    20.53000      # Alo
254     1       1       1.782000    10.09000    26.29000    20.53000      # Alo
255     1       9       -1.195000   9.10000     18.54000    19.46000      # Omg
256     1       9       -1.195000   6.89000     20.27000    19.46000      # Omg
257     1       9       -1.195000   8.09000     20.30000    21.59000      # Omg
258     1       8       -1.124000   5.87000     18.60000    21.53000      # Ohmg
259     1       9       -1.195000   6.50000     23.05000    19.46000      # Omg
260     1       7       -0.994000   9.12000     21.97000    19.53000      # Oh
261     1       7       -0.994000   8.46000     23.10000    21.53000      # Oh
262     1       10      -1.065000   11.08000    22.03000    21.59000      # Op
263     1       10      -1.065000   9.49000     24.78000    19.46000      # Op
264     1       8       -1.124000   11.71000    26.48000    19.53000      # Ohmg
265     1       10      -1.065000   10.69000    24.81000    21.59000      # Op
266     1       10      -1.065000   8.48000     26.53000    21.59000      # Op
267     1       2       0.400000    5.41000     19.36000    21.74000      # H
268     1       2       0.400000    9.53000     21.20000    19.25000      # H
269     1       2       0.400000    8.01000     23.84000    21.83000      # H
270     1       2       0.400000    12.17000    25.73000    19.26000      # H
271     1       12      1.884000    8.27000     20.36000    23.23000      # Sit
272     1       12      1.884000    10.93000    21.90000    23.23000      # Sit
273     1       12      1.884000    10.86000    24.87000    23.23000      # Sit
274     1       12      1.884000    8.33000     26.41000    23.23000      # Sit
275     1       6       -0.942000   8.02000     18.87000    23.88000      # Ob
276     1       6       -0.942000   7.15000     21.37000    23.89000      # Ob
277     1       6       -0.942000   9.77000     20.83000    23.68000      # Ob
278     1       6       -0.942000   10.62000    23.37000    23.88000      # Ob
279     1       6       -0.942000   9.75000     25.88000    23.89000      # Ob
280     1       6       -0.942000   7.18000     25.34000    23.68000      # Ob
281     1       12      1.884000    9.24000     27.69000    17.82000      # Sit
282     1       12      1.884000    6.72000     29.23000    17.82000      # Sit
283     1       12      1.884000    6.65000     32.19000    17.82000      # Sit
284     1       12      1.884000    9.31000     33.73000    17.82000      # Sit
285     1       6       -0.942000   10.40000    28.75000    17.38000      # Ob
286     1       6       -0.942000   7.83000     28.22000    17.16000      # Ob
287     1       6       -0.942000   6.96000     30.72000    17.17000      # Ob
288     1       6       -0.942000   7.80000     33.26000    17.38000      # Ob
289     1       6       -0.942000   10.42000    32.72000    17.16000      # Ob
290     1       6       -0.942000   9.56000     35.23000    17.17000      # Ob
291     1       1       1.782000    7.49000     27.80000    20.53000      # Alo
292     1       1       1.782000    7.49000     30.80000    20.53000      # Alo
293     1       4       1.562000    10.09000    32.31000    20.53000      # Mgo
294     1       1       1.782000    10.09000    35.31000    20.53000      # Alo
295     1       10      -1.065000   9.10000     27.56000    19.46000      # Op
296     1       10      -1.065000   6.89000     29.29000    19.46000      # Op
297     1       10      -1.065000   8.09000     29.31000    21.59000      # Op
298     1       7       -0.994000   5.87000     27.61000    21.53000      # Oh
299     1       9       -1.195000   6.50000     32.07000    19.46000      # Omg
300     1       8       -1.124000   9.12000     30.99000    19.53000      # Ohmg
301     1       8       -1.124000   8.46000     32.12000    21.53000      # Ohmg
302     1       9       -1.195000   11.08000    31.04000    21.59000      # Omg
303     1       9       -1.195000   9.49000     33.79000    19.46000      # Omg
304     1       7       -0.994000   11.71000    35.50000    19.53000      # Oh
305     1       9       -1.195000   10.69000    33.82000    21.59000      # Omg
306     1       9       -1.195000   8.48000     35.55000    21.59000      # Omg
307     1       2       0.400000    5.41000     28.38000    21.76000      # H
308     1       2       0.400000    9.58000     30.23000    19.29000      # H
309     1       2       0.400000    8.02000     32.88000    21.78000      # H
310     1       2       0.400000    12.20000    34.72000    19.36000      # H
311     1       12      1.884000    8.27000     29.37000    23.23000      # Sit
312     1       12      1.884000    10.93000    30.91000    23.23000      # Sit
313     1       12      1.884000    10.86000    33.88000    23.23000      # Sit
314     1       12      1.884000    8.33000     35.42000    23.23000      # Sit
315     1       6       -0.942000   8.02000     27.88000    23.88000      # Ob
316     1       6       -0.942000   7.15000     30.38000    23.89000      # Ob
317     1       6       -0.942000   9.77000     29.85000    23.68000      # Ob
318     1       6       -0.942000   10.62000    32.39000    23.88000      # Ob
319     1       6       -0.942000   9.75000     34.89000    23.89000      # Ob
320     1       6       -0.942000   7.18000     34.35000    23.68000      # Ob
321     1       12      1.884000    14.44000    0.64000     17.82000      # Sit
322     1       12      1.884000    11.91000    2.18000     17.82000      # Sit
323     1       12      1.884000    11.84000    5.15000     17.82000      # Sit
324     1       12      1.884000    14.50000    6.69000     17.82000      # Sit
325     1       6       -0.942000   15.59000    1.71000     17.38000      # Ob
326     1       6       -0.942000   13.02000    1.17000     17.16000      # Ob
327     1       6       -0.942000   12.15000    3.67000     17.17000      # Ob
328     1       6       -0.942000   13.00000    6.21000     17.38000      # Ob
329     1       6       -0.942000   15.62000    5.68000     17.16000      # Ob
330     1       6       -0.942000   14.75000    8.18000     17.17000      # Ob
331     1       1       1.782000    12.68000    0.75000     20.53000      # Alo
332     1       1       1.782000    12.68000    3.75000     20.53000      # Alo
333     1       4       1.562000    15.28000    5.26000     20.53000      # Mgo
334     1       1       1.782000    15.28000    8.26000     20.53000      # Alo
335     1       10      -1.065000   14.29000    0.51000     19.46000      # Op
336     1       10      -1.065000   12.08000    2.24000     19.46000      # Op
337     1       10      -1.065000   13.28000    2.27000     21.59000      # Op
338     1       7       -0.994000   11.06000    0.57000     21.53000      # Oh
339     1       10      -1.065000   11.69000    5.02000     19.46000      # Op
340     1       8       -1.124000   14.31000    3.94000     19.53000      # Ohmg
341     1       8       -1.124000   13.66000    5.07000     21.53000      # Ohmg
342     1       9       -1.195000   16.27000    4.00000     21.59000      # Omg
343     1       9       -1.195000   14.68000    6.75000     19.46000      # Omg
344     1       8       -1.124000   16.90000    8.45000     19.53000      # Ohmg
345     1       9       -1.195000   15.88000    6.77000     21.59000      # Omg
346     1       10      -1.065000   13.67000    8.50000     21.59000      # Op
347     1       2       0.400000    10.42000    1.24000     21.55000      # H
348     1       2       0.400000    14.76000    3.20000     19.22000      # H
349     1       2       0.400000    13.22000    5.84000     21.79000      # H
350     1       2       0.400000    17.33000    7.69000     19.23000      # H
351     1       12      1.884000    13.46000    2.33000     23.23000      # Sit
352     1       12      1.884000    16.12000    3.87000     23.23000      # Sit
353     1       12      1.884000    16.05000    6.83000     23.23000      # Sit
354     1       12      1.884000    13.53000    8.38000     23.23000      # Sit
355     1       6       -0.942000   13.21000    0.84000     23.88000      # Ob
356     1       6       -0.942000   12.35000    3.34000     23.89000      # Ob
357     1       6       -0.942000   14.97000    2.80000     23.68000      # Ob
358     1       6       -0.942000   15.81000    5.34000     23.88000      # Ob
359     1       6       -0.942000   14.94000    7.85000     23.89000      # Ob
360     1       6       -0.942000   12.37000    7.31000     23.68000      # Ob
361     1       12      1.884000    14.44000    9.65000     17.82000      # Sit
362     1       12      1.884000    11.91000    11.20000    17.82000      # Sit
363     1       12      1.884000    11.84000    14.16000    17.82000      # Sit
364     1       12      1.884000    14.50000    15.70000    17.82000      # Sit
365     1       6       -0.942000   15.59000    10.72000    17.38000      # Ob