LAMMPS data file generated by atomipy on 2025-04-05 14:21:59
# Total charge of the system is 0.00000

4080 atoms
960 bonds
15120 angles
0 dihedrals
0 impropers

6 atom types
1 bond types
10 angle types
0 dihedral types
0 improper types

0.0 30.924000 xlo xhi
0.0 35.767780 ylo yhi
0.0 35.666870 zlo zhi
0.000000 -1.211100 0.000000 xy xz yz

Masses

1 26.982000  # Alo
2 1.007840  # H
3 15.999400  # Ob
4 15.999400  # Oh
5 15.999400  # Op
6 28.085000  # Sit

Atoms

1	1	1	1.782000	0.610300	4.329600	3.319900  # Alo
2	1	1	1.782000	3.200100	2.830100	3.319900  # Alo
3	1	1	1.782000	0.640200	7.300100	3.319900  # Alo
4	1	1	1.782000	3.199800	8.799700	3.319900  # Alo
5	1	6	1.884000	4.930000	3.010100	0.649900  # Sit
6	1	6	1.884000	2.440100	1.469700	0.669800  # Sit
7	1	6	1.884000	-0.119700	5.939700	0.669800  # Sit
8	1	6	1.884000	2.370100	7.480200	0.649900  # Sit
9	1	3	-0.942000	0.020200	4.470100	0.000000  # Ob
10	1	3	-0.942000	1.000100	2.039700	0.209700  # Ob
11	1	3	-0.942000	1.040100	6.830400	0.010000  # Ob
12	1	3	-0.942000	3.600000	2.360300	0.010000  # Ob
13	1	3	-0.942000	3.590100	6.509800	0.209700  # Ob
14	1	3	-0.942000	2.580100	0.000000	0.000000  # Ob
15	1	5	-1.065000	-0.339900	3.040400	2.259900  # Op
16	1	5	-1.065000	-0.009800	5.820100	2.269800  # Op
17	1	5	-1.065000	2.550100	1.350100	2.269800  # Op
18	1	5	-1.065000	2.250100	7.509600	2.259900  # Op
19	1	4	-0.994000	-0.339700	8.600300	2.319800  # Oh
20	1	4	-0.994000	3.790200	1.340000	4.330000  # Oh
21	1	4	-0.994000	-0.950000	4.079600	4.310000  # Oh
22	1	4	-0.994000	-0.950100	7.530200	4.339900  # Oh
23	1	4	-0.994000	1.620000	3.060100	4.339900  # Oh
24	1	4	-0.994000	1.640000	8.549700	4.310000  # Oh
25	1	4	-0.994000	1.229800	5.810100	4.330000  # Oh
26	1	4	-0.994000	2.229900	4.130200	2.319800  # Oh
27	1	2	0.400000	0.120100	0.489900	2.319800  # H
28	1	2	0.400000	-1.100200	1.290000	5.250200  # H
29	1	2	0.400000	-1.199800	4.340000	5.200200  # H
30	1	2	0.400000	1.370000	2.649800	5.180300  # H
31	1	2	0.400000	-1.189900	7.119800	5.180300  # H
32	1	2	0.400000	1.360000	-0.130100	5.200200  # H
33	1	2	0.400000	1.500100	5.760100	5.250200  # H
34	1	2	0.400000	2.710100	4.960000	2.319800  # H
35	1	1	1.782000	5.764300	4.329600	3.319900  # Alo
36	1	1	1.782000	8.354100	2.830100	3.319900  # Alo
37	1	1	1.782000	5.794200	7.300100	3.319900  # Alo
38	1	1	1.782000	8.353800	8.799700	3.319900  # Alo
39	1	6	1.884000	10.084000	3.010100	0.649900  # Sit
40	1	6	1.884000	7.594100	1.469700	0.669800  # Sit
41	1	6	1.884000	5.034300	5.939700	0.669800  # Sit
42	1	6	1.884000	7.524100	7.480200	0.649900  # Sit
43	1	3	-0.942000	5.174200	4.470100	0.000000  # Ob
44	1	3	-0.942000	6.154100	2.039700	0.209700  # Ob
45	1	3	-0.942000	6.194100	6.830400	0.010000  # Ob
46	1	3	-0.942000	8.754000	2.360300	0.010000  # Ob
47	1	3	-0.942000	8.744100	6.509800	0.209700  # Ob
48	1	3	-0.942000	7.734100	0.000000	0.000000  # Ob
49	1	5	-1.065000	4.814100	3.040400	2.259900  # Op
50	1	5	-1.065000	5.144200	5.820100	2.269800  # Op
51	1	5	-1.065000	7.704100	1.350100	2.269800  # Op
52	1	5	-1.065000	7.404100	7.509600	2.259900  # Op
53	1	4	-0.994000	4.814300	8.600300	2.319800  # Oh
54	1	4	-0.994000	8.944200	1.340000	4.330000  # Oh
55	1	4	-0.994000	4.204000	4.079600	4.310000  # Oh
56	1	4	-0.994000	4.203900	7.530200	4.339900  # Oh
57	1	4	-0.994000	6.774000	3.060100	4.339900  # Oh
58	1	4	-0.994000	6.794000	8.549700	4.310000  # Oh
59	1	4	-0.994000	6.383800	5.810100	4.330000  # Oh
60	1	4	-0.994000	7.383900	4.130200	2.319800  # Oh
61	1	2	0.400000	5.274100	0.489900	2.319800  # H
62	1	2	0.400000	4.053800	1.290000	5.250200  # H
63	1	2	0.400000	3.954200	4.340000	5.200200  # H
64	1	2	0.400000	6.524000	2.649800	5.180300  # H
65	1	2	0.400000	3.964100	7.119800	5.180300  # H
66	1	2	0.400000	6.514000	-0.130100	5.200200  # H
67	1	2	0.400000	6.654100	5.760100	5.250200  # H
68	1	2	0.400000	7.864100	4.960000	2.319800  # H
69	1	1	1.782000	10.918300	4.329600	3.319900  # Alo
70	1	1	1.782000	13.508100	2.830100	3.319900  # Alo
71	1	1	1.782000	10.948200	7.300100	3.319900  # Alo
72	1	1	1.782000	13.507800	8.799700	3.319900  # Alo
73	1	6	1.884000	15.238000	3.010100	0.649900  # Sit
74	1	6	1.884000	12.748100	1.469700	0.669800  # Sit
75	1	6	1.884000	10.188300	5.939700	0.669800  # Sit
76	1	6	1.884000	12.678100	7.480200	0.649900  # Sit
77	1	3	-0.942000	10.328200	4.470100	0.000000  # Ob
78	1	3	-0.942000	11.308100	2.039700	0.209700  # Ob
79	1	3	-0.942000	11.348100	6.830400	0.010000  # Ob
80	1	3	-0.942000	13.908000	2.360300	0.010000  # Ob
81	1	3	-0.942000	13.898100	6.509800	0.209700  # Ob
82	1	3	-0.942000	12.888100	0.000000	0.000000  # Ob
83	1	5	-1.065000	9.968100	3.040400	2.259900  # Op
84	1	5	-1.065000	10.298200	5.820100	2.269800  # Op
85	1	5	-1.065000	12.858100	1.350100	2.269800  # Op
86	1	5	-1.065000	12.558100	7.509600	2.259900  # Op
87	1	4	-0.994000	9.968300	8.600300	2.319800  # Oh
88	1	4	-0.994000	14.098200	1.340000	4.330000  # Oh
89	1	4	-0.994000	9.358000	4.079600	4.310000  # Oh
90	1	4	-0.994000	9.357900	7.530200	4.339900  # Oh
91	1	4	-0.994000	11.928000	3.060100	4.339900  # Oh
92	1	4	-0.994000	11.948000	8.549700	4.310000  # Oh
93	1	4	-0.994000	11.537800	5.810100	4.330000  # Oh
94	1	4	-0.994000	12.537900	4.130200	2.319800  # Oh
95	1	2	0.400000	10.428100	0.489900	2.319800  # H
96	1	2	0.400000	9.207800	1.290000	5.250200  # H
97	1	2	0.400000	9.108200	4.340000	5.200200  # H
98	1	2	0.400000	11.678000	2.649800	5.180300  # H
99	1	2	0.400000	9.118100	7.119800	5.180300  # H
100	1	2	0.400000	11.668000	-0.130100	5.200200  # H
101	1	2	0.400000	11.808100	5.760100	5.250200  # H
102	1	2	0.400000	13.018100	4.960000	2.319800  # H
103	1	1	1.782000	16.072300	4.329600	3.319900  # Alo
104	1	1	1.782000	18.662100	2.830100	3.319900  # Alo
105	1	1	1.782000	16.102200	7.300100	3.319900  # Alo
106	1	1	1.782000	18.661800	8.799700	3.319900  # Alo
107	1	6	1.884000	20.392000	3.010100	0.649900  # Sit
108	1	6	1.884000	17.902100	1.469700	0.669800  # Sit
109	1	6	1.884000	15.342300	5.939700	0.669800  # Sit
110	1	6	1.884000	17.832100	7.480200	0.649900  # Sit
111	1	3	-0.942000	15.482200	4.470100	0.000000  # Ob
112	1	3	-0.942000	16.462100	2.039700	0.209700  # Ob
113	1	3	-0.942000	16.502100	6.830400	0.010000  # Ob
114	1	3	-0.942000	19.062000	2.360300	0.010000  # Ob
115	1	3	-0.942000	19.052100	6.509800	0.209700  # Ob
116	1	3	-0.942000	18.042100	0.000000	0.000000  # Ob
117	1	5	-1.065000	15.122100	3.040400	2.259900  # Op
118	1	5	-1.065000	15.452200	5.820100	2.269800  # Op
119	1	5	-1.065000	18.012100	1.350100	2.269800  # Op
120	1	5	-1.065000	17.712100	7.509600	2.259900  # Op
121	1	4	-0.994000	15.122300	8.600300	2.319800  # Oh
122	1	4	-0.994000	19.252200	1.340000	4.330000  # Oh
123	1	4	-0.994000	14.512000	4.079600	4.310000  # Oh
124	1	4	-0.994000	14.511900	7.530200	4.339900  # Oh
125	1	4	-0.994000	17.082000	3.060100	4.339900  # Oh
126	1	4	-0.994000	17.102000	8.549700	4.310000  # Oh
127	1	4	-0.994000	16.691800	5.810100	4.330000  # Oh
128	1	4	-0.994000	17.691900	4.130200	2.319800  # Oh
129	1	2	0.400000	15.582100	0.489900	2.319800  # H
130	1	2	0.400000	14.361800	1.290000	5.250200  # H
131	1	2	0.400000	14.262200	4.340000	5.200200  # H
132	1	2	0.400000	16.832000	2.649800	5.180300  # H
133	1	2	0.400000	14.272100	7.119800	5.180300  # H
134	1	2	0.400000	16.822000	-0.130100	5.200200  # H
135	1	2	0.400000	16.962100	5.760100	5.250200  # H
136	1	2	0.400000	18.172100	4.960000	2.319800  # H
137	1	1	1.782000	21.226300	4.329600	3.319900  # Alo
138	1	1	1.782000	23.816100	2.830100	3.319900  # Alo
139	1	1	1.782000	21.256200	7.300100	3.319900  # Alo
140	1	1	1.782000	23.815800	8.799700	3.319900  # Alo
141	1	6	1.884000	25.546000	3.010100	0.649900  # Sit
142	1	6	1.884000	23.056100	1.469700	0.669800  # Sit
143	1	6	1.884000	20.496300	5.939700	0.669800  # Sit
144	1	6	1.884000	22.986100	7.480200	0.649900  # Sit
145	1	3	-0.942000	20.636200	4.470100	0.000000  # Ob
146	1	3	-0.942000	21.616100	2.039700	0.209700  # Ob
147	1	3	-0.942000	21.656100	6.830400	0.010000  # Ob
148	1	3	-0.942000	24.216000	2.360300	0.010000  # Ob
149	1	3	-0.942000	24.206100	6.509800	0.209700  # Ob
150	1	3	-0.942000	23.196100	0.000000	0.000000  # Ob
151	1	5	-1.065000	20.276100	3.040400	2.259900  # Op
152	1	5	-1.065000	20.606200	5.820100	2.269800  # Op
153	1	5	-1.065000	23.166100	1.350100	2.269800  # Op
154	1	5	-1.065000	22.866100	7.509600	2.259900  # Op
155	1	4	-0.994000	20.276300	8.600300	2.319800  # Oh
156	1	4	-0.994000	24.406200	1.340000	4.330000  # Oh
157	1	4	-0.994000	19.666000	4.079600	4.310000  # Oh
158	1	4	-0.994000	19.665900	7.530200	4.339900  # Oh
159	1	4	-0.994000	22.236000	3.060100	4.339900  # Oh
160	1	4	-0.994000	22.256000	8.549700	4.310000  # Oh
161	1	4	-0.994000	21.845800	5.810100	4.330000  # Oh
162	1	4	-0.994000	22.845900	4.130200	2.319800  # Oh
163	1	2	0.400000	20.736100	0.489900	2.319800  # H
164	1	2	0.400000	19.515800	1.290000	5.250200  # H
165	1	2	0.400000	19.416200	4.340000	5.200200  # H
166	1	2	0.400000	21.986000	2.649800	5.180300  # H
167	1	2	0.400000	19.426100	7.119800	5.180300  # H
168	1	2	0.400000	21.976000	-0.130100	5.200200  # H
169	1	2	0.400000	22.116100	5.760100	5.250200  # H
170	1	2	0.400000	23.326100	4.960000	2.319800  # H
171	1	1	1.782000	26.380300	4.329600	3.319900  # Alo
172	1	1	1.782000	28.970100	2.830100	3.319900  # Alo
173	1	1	1.782000	26.410200	7.300100	3.319900  # Alo
174	1	1	1.782000	28.969800	8.799700	3.319900  # Alo
175	1	6	1.884000	30.700000	3.010100	0.649900  # Sit
176	1	6	1.884000	28.210100	1.469700	0.669800  # Sit
177	1	6	1.884000	25.650300	5.939700	0.669800  # Sit
178	1	6	1.884000	28.140100	7.480200	0.649900  # Sit
179	1	3	-0.942000	25.790200	4.470100	0.000000  # Ob
180	1	3	-0.942000	26.770100	2.039700	0.209700  # Ob
181	1	3	-0.942000	26.810100	6.830400	0.010000  # Ob
182	1	3	-0.942000	29.370000	2.360300	0.010000  # Ob
183	1	3	-0.942000	29.360100	6.509800	0.209700  # Ob
184	1	3	-0.942000	28.350100	0.000000	0.000000  # Ob
185	1	5	-1.065000	25.430100	3.040400	2.259900  # Op
186	1	5	-1.065000	25.760200	5.820100	2.269800  # Op
187	1	5	-1.065000	28.320100	1.350100	2.269800  # Op
188	1	5	-1.065000	28.020100	7.509600	2.259900  # Op
189	1	4	-0.994000	25.430300	8.600300	2.319800  # Oh
190	1	4	-0.994000	29.560200	1.340000	4.330000  # Oh
191	1	4	-0.994000	24.820000	4.079600	4.310000  # Oh
192	1	4	-0.994000	24.819900	7.530200	4.339900  # Oh
193	1	4	-0.994000	27.390000	3.060100	4.339900  # Oh
194	1	4	-0.994000	27.410000	8.549700	4.310000  # Oh
195	1	4	-0.994000	26.999800	5.810100	4.330000  # Oh
196	1	4	-0.994000	27.999900	4.130200	2.319800  # Oh
197	1	2	0.400000	25.890100	0.489900	2.319800  # H
198	1	2	0.400000	24.669800	1.290000	5.250200  # H
199	1	2	0.400000	24.570200	4.340000	5.200200  # H
200	1	2	0.400000	27.140000	2.649800	5.180300  # H
201	1	2	0.400000	24.580100	7.119800	5.180300  # H
202	1	2	0.400000	27.130000	-0.130100	5.200200  # H
203	1	2	0.400000	27.270100	5.760100	5.250200  # H
204	1	2	0.400000	28.480100	4.960000	2.319800  # H
205	1	1	1.782000	0.641500	13.271600	3.319900  # Alo
206	1	1	1.782000	3.231300	11.772000	3.319900  # Alo
207	1	1	1.782000	0.671500	16.242100	3.319900  # Alo
208	1	1	1.782000	3.231000	17.741700	3.319900  # Alo
209	1	6	1.884000	4.961200	11.952100	0.649900  # Sit
210	1	6	1.884000	2.471400	10.411600	0.669800  # Sit
211	1	6	1.884000	-0.088500	14.881700	0.669800  # Sit
212	1	6	1.884000	2.401300	16.422200	0.649900  # Sit
213	1	3	-0.942000	0.051500	13.412000	0.000000  # Ob
214	1	3	-0.942000	1.031300	10.981600	0.209700  # Ob
215	1	3	-0.942000	1.071300	15.772400	0.010000  # Ob
216	1	3	-0.942000	3.631200	11.302300	0.010000  # Ob
217	1	3	-0.942000	3.621300	15.451700	0.209700  # Ob
218	1	3	-0.942000	2.611300	8.941900	0.000000  # Ob
219	1	5	-1.065000	-0.308700	11.982400	2.259900  # Op
220	1	5	-1.065000	0.021500	14.762100	2.269800  # Op
221	1	5	-1.065000	2.581300	10.292000	2.269800  # Op
222	1	5	-1.065000	2.281300	16.451600	2.259900  # Op
223	1	4	-0.994000	-0.308500	17.542200	2.319800  # Oh
224	1	4	-0.994000	3.821400	10.282000	4.330000  # Oh
225	1	4	-0.994000	-0.918800	13.021600	4.310000  # Oh
226	1	4	-0.994000	-0.918900	16.472100	4.339900  # Oh
227	1	4	-0.994000	1.651300	12.002100	4.339900  # Oh
228	1	4	-0.994000	1.671300	17.491600	4.310000  # Oh
229	1	4	-0.994000	1.261000	14.752000	4.330000  # Oh
230	1	4	-0.994000	2.261100	13.072100	2.319800  # Oh
231	1	2	0.400000	0.151300	9.431900	2.319800  # H
232	1	2	0.400000	-1.069000	10.231900	5.250200  # H
233	1	2	0.400000	-1.168600	13.281900	5.200200  # H
234	1	2	0.400000	1.401200	11.591700	5.180300  # H
235	1	2	0.400000	-1.158700	16.061800	5.180300  # H
236	1	2	0.400000	1.391200	8.811900	5.200200  # H
237	1	2	0.400000	1.531300	14.702000	5.250200  # H
238	1	2	0.400000	2.741300	13.902000	2.319800  # H
239	1	1	1.782000	5.795500	13.271600	3.319900  # Alo
240	1	1	1.782000	8.385300	11.772000	3.319900  # Alo
241	1	1	1.782000	5.825500	16.242100	3.319900  # Alo
242	1	1	1.782000	8.385000	17.741700	3.319900  # Alo
243	1	6	1.884000	10.115200	11.952100	0.649900  # Sit
244	1	6	1.884000	7.625400	10.411600	0.669800  # Sit
245	1	6	1.884000	5.065500	14.881700	0.669800  # Sit
246	1	6	1.884000	7.555300	16.422200	0.649900  # Sit
247	1	3	-0.942000	5.205500	13.412000	0.000000  # Ob
248	1	3	-0.942000	6.185300	10.981600	0.209700  # Ob
249	1	3	-0.942000	6.225300	15.772400	0.010000  # Ob
250	1	3	-0.942000	8.785200	11.302300	0.010000  # Ob
251	1	3	-0.942000	8.775300	15.451700	0.209700  # Ob
252	1	3	-0.942000	7.765300	8.941900	0.000000  # Ob
253	1	5	-1.065000	4.845300	11.982400	2.259900  # Op
254	1	5	-1.065000	5.175500	14.762100	2.269800  # Op
255	1	5	-1.065000	7.735300	10.292000	2.269800  # Op
256	1	5	-1.065000	7.435300	16.451600	2.259900  # Op
257	1	4	-0.994000	4.845500	17.542200	2.319800  # Oh
258	1	4	-0.994000	8.975400	10.282000	4.330000  # Oh
259	1	4	-0.994000	4.235200	13.021600	4.310000  # Oh
260	1	4	-0.994000	4.235100	16.472100	4.339900  # Oh
261	1	4	-0.994000	6.805300	12.002100	4.339900  # Oh
262	1	4	-0.994000	6.825300	17.491600	4.310000  # Oh
263	1	4	-0.994000	6.415000	14.752000	4.330000  # Oh
264	1	4	-0.994000	7.415100	13.072100	2.319800  # Oh
265	1	2	0.400000	5.305300	9.431900	2.319800  # H
266	1	2	0.400000	4.085000	10.231900	5.250200  # H
267	1	2	0.400000	3.985400	13.281900	5.200200  # H
268	1	2	0.400000	6.555200	11.591700	5.180300  # H
269	1	2	0.400000	3.995300	16.061800	5.180300  # H
270	1	2	0.400000	6.545200	8.811900	5.200200  # H
271	1	2	0.400000	6.685300	14.702000	5.250200  # H
272	1	2	0.400000	7.895300	13.902000	2.319800  # H
273	1	1	1.782000	10.949500	13.271600	3.319900  # Alo
274	1	1	1.782000	13.539300	11.772000	3.319900  # Alo
275	1	1	1.782000	10.979500	16.242100	3.319900  # Alo
276	1	1	1.782000	13.539000	17.741700	3.319900  # Alo
277	1	6	1.884000	15.269200	11.952100	0.649900  # Sit
278	1	6	1.884000	12.779400	10.411600	0.669800  # Sit
279	1	6	1.884000	10.219500	14.881700	0.669800  # Sit
280	1	6	1.884000	12.709300	16.422200	0.649900  # Sit
281	1	3	-0.942000	10.359500	13.412000	0.000000  # Ob
282	1	3	-0.942000	11.339300	10.981600	0.209700  # Ob
283	1	3	-0.942000	11.379300	15.772400	0.010000  # Ob
284	1	3	-0.942000	13.939200	11.302300	0.010000  # Ob
285	1	3	-0.942000	13.929300	15.451700	0.209700  # Ob
286	1	3	-0.942000	12.919300	8.941900	0.000000  # Ob
287	1	5	-1.065000	9.999300	11.982400	2.259900  # Op
288	1	5	-1.065000	10.329500	14.762100	2.269800  # Op
289	1	5	-1.065000	12.889300	10.292000	2.269800  # Op
290	1	5	-1.065000	12.589300	16.451600	2.259900  # Op
291	1	4	-0.994000	9.999500	17.542200	2.319800  # Oh
292	1	4	-0.994000	14.129400	10.282000	4.330000  # Oh
293	1	4	-0.994000	9.389200	13.021600	4.310000  # Oh
294	1	4	-0.994000	9.389100	16.472100	4.339900  # Oh
295	1	4	-0.994000	11.959300	12.002100	4.339900  # Oh
296	1	4	-0.994000	11.979300	17.491600	4.310000  # Oh
297	1	4	-0.994000	11.569000	14.752000	4.330000  # Oh
298	1	4	-0.994000	12.569100	13.072100	2.319800  # Oh
299	1	2	0.400000	10.459300	9.431900	2.319800  # H
300	1	2	0.400000	9.239000	10.231900	5.250200  # H
301	1	2	0.400000	9.139400	13.281900	5.200200  # H
302	1	2	0.400000	11.709200	11.591700	5.180300  # H
303	1	2	0.400000	9.149300	16.061800	5.180300  # H
304	1	2	0.400000	11.699200	8.811900	5.200200  # H
305	1	2	0.400000	11.839300	14.702000	5.250200  # H
306	1	2	0.400000	13.049300	13.902000	2.319800  # H
307	1	1	1.782000	16.103500	13.271600	3.319900  # Alo
308	1	1	1.782000	18.693300	11.772000	3.319900  # Alo
309	1	1	1.782000	16.133500	16.242100	3.319900  # Alo
310	1	1	1.782000	18.693000	17.741700	3.319900  # Alo
311	1	6	1.884000	20.423200	11.952100	0.649900  # Sit
312	1	6	1.884000	17.933400	10.411600	0.669800  # Sit
313	1	6	1.884000	15.373500	14.881700	0.669800  # Sit
314	1	6	1.884000	17.863300	16.422200	0.649900  # Sit
315	1	3	-0.942000	15.513500	13.412000	0.000000  # Ob
316	1	3	-0.942000	16.493300	10.981600	0.209700  # Ob
317	1	3	-0.942000	16.533300	15.772400	0.010000  # Ob
318	1	3	-0.942000	19.093200	11.302300	0.010000  # Ob
319	1	3	-0.942000	19.083300	15.451700	0.209700  # Ob
320	1	3	-0.942000	18.073300	8.941900	0.000000  # Ob
321	1	5	-1.065000	15.153300	11.982400	2.259900  # Op
322	1	5	-1.065000	15.483500	14.762100	2.269800  # Op
323	1	5	-1.065000	18.043300	10.292000	2.269800  # Op
324	1	5	-1.065000	17.743300	16.451600	2.259900  # Op
325	1	4	-0.994000	15.153500	17.542200	2.319800  # Oh
326	1	4	-0.994000	19.283400	10.282000	4.330000  # Oh
327	1	4	-0.994000	14.543200	13.021600	4.310000  # Oh
328	1	4	-0.994000	14.543100	16.472100	4.339900  # Oh
329	1	4	-0.994000	17.113300	12.002100	4.339900  # Oh
330	1	4	-0.994000	17.133300	17.491600	4.310000  # Oh
331	1	4	-0.994000	16.723000	14.752000	4.330000  # Oh
332	1	4	-0.994000	17.723100	13.072100	2.319800  # Oh
333	1	2	0.400000	15.613300	9.431900	2.319800  # H
334	1	2	0.400000	14.393000	10.231900	5.250200  # H
335	1	2	0.400000	14.293400	13.281900	5.200200  # H
336	1	2	0.400000	16.863200	11.591700	5.180300  # H
337	1	2	0.400000	14.303300	16.061800	5.180300  # H
338	1	2	0.400000	16.853200	8.811900	5.200200  # H
339	1	2	0.400000	16.993300	14.702000	5.250200  # H
340	1	2	0.400000	18.203300	13.902000	2.319800  # H
341	1	1	1.782000	21.257500	13.271600	3.319900  # Alo
342	1	1	1.782000	23.847300	11.772000	3.319900  # Alo
343	1	1	1.782000	21.287500	16.242100	3.319900  # Alo
344	1	1	1.782000	23.847000	17.741700	3.319900  # Alo
345	1	6	1.884000	25.577200	11.952100	0.649900  # Sit
346	1	6	1.884000	23.087400	10.411600	0.669800  # Sit
347	1	6	1.884000	20.527500	14.881700	0.669800  # Sit
348	1	6	1.884000	23.017300	16.422200	0.649900  # Sit
349	1	3	-0.942000	20.667500	13.412000	0.000000  # Ob
350	1	3	-0.942000	21.647300	10.981600	0.209700  # Ob
351	1	3	-0.942000	21.687300	15.772400	0.010000  # Ob
352	1	3	-0.942000	24.247200	11.302300	0.010000  # Ob
353	1	3	-0.942000	24.237300	15.451700	0.209700  # Ob
354	1	3	-0.942000	23.227300	8.941900	0.000000  # Ob
355	1	5	-1.065000	20.307300	11.982400	2.259900  # Op
356	1	5	-1.065000	20.637500	14.762100	2.269800  # Op
357	1	5	-1.065000	23.197300	10.292000	2.269800  # Op
358	1	5	-1.065000	22.897300	16.451600	2.259900  # Op
359	1	4	-0.994000	20.307500	17.542200	2.319800  # Oh
360	1	4	-0.994000	24.437400	10.282000	4.330000  # Oh
361	1	4	-0.994000	19.697200	13.021600	4.310000  # Oh
362	1	4	-0.994000	19.697100	16.472100	4.339900  # Oh
363	1	4	-0.994000	22.267300	12.002100	4.339900  # Oh
364	1	4	-0.994000	22.287300	17.491600	4.310000  # Oh
365	1	4	-0.994000	21.877000	14.752000	4.330000  # Oh
366	1	4	-0.994000	22.877100	13.072100	2.319800  # Oh
367	1	2	0.400000	20.767300	9.431900	2.319800  # H
368	1	2	0.400000	19.547000	10.231900	5.250200  # H
369	1	2	0.400000	19.447400	13.281900	5.200200  # H
370	1	2	0.400000	22.017200	11.591700	5.180300  # H
371	1	2	0.400000	19.457300	16.061800	5.180300  # H
372	1	2	0.400000	22.007200	8.811900	5.200200  # H
373	1	2	0.400000	22.147300	14.702000	5.250200  # H
374	1	2	0.400000	23.357300	13.902000	2.319800  # H
375	1	1	1.782000	26.411500	13.271600	3.319900  # Alo
376	1	1	1.782000	29.001300	11.772000	3.319900  # Alo
377	1	1	1.782000	26.441500	16.242100	3.319900  # Alo
378	1	1	1.782000	29.001000	17.741700	3.319900  # Alo
379	1	6	1.884000	30.731200	11.952100	0.649900  # Sit
380	1	6	1.884000	28.241400	10.411600	0.669800  # Sit
381	1	6	1.884000	25.681500	14.881700	0.669800  # Sit
382	1	6	1.884000	28.171300	16.422200	0.649900  # Sit
383	1	3	-0.942000	25.821500	13.412000	0.000000  # Ob
384	1	3	-0.942000	26.801300	10.981600	0.209700  # Ob
385	1	3	-0.942000	26.841300	15.772400	0.010000  # Ob
386	1	3	-0.942000	29.401200	11.302300	0.010000  # Ob
387	1	3	-0.942000	29.391300	15.451700	0.209700  # Ob
388	1	3	-0.942000	28.381300	8.941900	0.000000  # Ob
389	1	5	-1.065000	25.461300	11.982400	2.259900  # Op
390	1	5	-1.065000	25.791500	14.762100	2.269800  # Op
391	1	5	-1.065000	28.351300	10.292000	2.269800  # Op
392	1	5	-1.065000	28.051300	16.451600	2.259900  # Op
393	1	4	-0.994000	25.461500	17.542200	2.319800  # Oh
394	1	4	-0.994000	29.591400	10.282000	4.330000  # Oh
395	1	4	-0.994000	24.851200	13.021600	4.310000  # Oh
396	1	4	-0.994000	24.851100	16.472100	4.339900  # Oh
397	1	4	-0.994000	27.421300	12.002100	4.339900  # Oh
398	1	4	-0.994000	27.441300	17.491600	4.310000  # Oh
399	1	4	-0.994000	27.031000	14.752000	4.330000  # Oh
400	1	4	-0.994000	28.031100	13.072100	2.319800  # Oh
401	1	2	0.400000	25.921300	9.431900	2.319800  # H
402	1	2	0.400000	24.701000	10.231900	5.250200  # H
403	1	2	0.400000	24.601400	13.281900	5.200200  # H
404	1	2	0.400000	27.171200	11.591700	5.180300  # H
405	1	2	0.400000	24.611300	16.061800	5.180300  # H
406	1	2	0.400000	27.161200	8.811900	5.200200  # H
407	1	2	0.400000	27.301300	14.702000	5.250200  # H
408	1	2	0.400000	28.511300	13.902000	2.319800  # H
409	1	1	1.782000	0.672700	22.213500	3.319900  # Alo
410	1	1	1.782000	3.262500	20.714000	3.319900  # Alo
411	1	1	1.782000	0.702700	25.184000	3.319900  # Alo
412	1	1	1.782000	3.262200	26.683600	3.319900  # Alo
413	1	6	1.884000	4.992400	20.894000	0.649900  # Sit
414	1	6	1.884000	2.502600	19.353600	0.669800  # Sit
415	1	6	1.884000	-0.057300	23.823600	0.669800  # Sit
416	1	6	1.884000	2.432500	25.364100	0.649900  # Sit
417	1	3	-0.942000	0.082700	22.354000	0.000000  # Ob
418	1	3	-0.942000	1.062500	19.923600	0.209700  # Ob
419	1	3	-0.942000	1.102500	24.714300	0.010000  # Ob
420	1	3	-0.942000	3.662400	20.244200	0.010000  # Ob
421	1	3	-0.942000	3.652500	24.393700	0.209700  # Ob
422	1	3	-0.942000	2.642500	17.883900	0.000000  # Ob
423	1	5	-1.065000	-0.277500	20.924300	2.259900  # Op
424	1	5	-1.065000	0.052700	23.704000	2.269800  # Op
425	1	5	-1.065000	2.612500	19.234000	2.269800  # Op
426	1	5	-1.065000	2.312500	25.393500	2.259900  # Op
427	1	4	-0.994000	-0.277300	26.484200	2.319800  # Oh
428	1	4	-0.994000	3.852600	19.223900	4.330000  # Oh
429	1	4	-0.994000	-0.887600	21.963500	4.310000  # Oh
430	1	4	-0.994000	-0.887700	25.414100	4.339900  # Oh
431	1	4	-0.994000	1.682500	20.944000	4.339900  # Oh
432	1	4	-0.994000	1.702500	26.433600	4.310000  # Oh
433	1	4	-0.994000	1.292200	23.694000	4.330000  # Oh
434	1	4	-0.994000	2.292300	22.014100	2.319800  # Oh
435	1	2	0.400000	0.182500	18.373800	2.319800  # H
436	1	2	0.400000	-1.037800	19.173900	5.250200  # H
437	1	2	0.400000	-1.137400	22.223900	5.200200  # H
438	1	2	0.400000	1.432400	20.533600	5.180300  # H
439	1	2	0.400000	-1.127500	25.003700	5.180300  # H
440	1	2	0.400000	1.422500	17.753800	5.200200  # H
441	1	2	0.400000	1.562600	23.644000	5.250200  # H
442	1	2	0.400000	2.772500	22.843900	2.319800  # H
443	1	1	1.782000	5.826700	22.213500	3.319900  # Alo
444	1	1	1.782000	8.416500	20.714000	3.319900  # Alo
445	1	1	1.782000	5.856700	25.184000	3.319900  # Alo
446	1	1	1.782000	8.416200	26.683600	3.319900  # Alo
447	1	6	1.884000	10.146400	20.894000	0.649900  # Sit
448	1	6	1.884000	7.656600	19.353600	0.669800  # Sit
449	1	6	1.884000	5.096700	23.823600	0.669800  # Sit
450	1	6	1.884000	7.586500	25.364100	0.649900  # Sit
451	1	3	-0.942000	5.236700	22.354000	0.000000  # Ob
452	1	3	-0.942000	6.216500	19.923600	0.209700  # Ob
453	1	3	-0.942000	6.256500	24.714300	0.010000  # Ob
454	1	3	-0.942000	8.816400	20.244200	0.010000  # Ob
455	1	3	-0.942000	8.806500	24.393700	0.209700  # Ob
456	1	3	-0.942000	7.796500	17.883900	0.000000  # Ob
457	1	5	-1.065000	4.876500	20.924300	2.259900  # Op
458	1	5	-1.065000	5.206700	23.704000	2.269800  # Op
459	1	5	-1.065000	7.766500	19.234000	2.269800  # Op
460	1	5	-1.065000	7.466500	25.393500	2.259900  # Op
461	1	4	-0.994000	4.876700	26.484200	2.319800  # Oh
462	1	4	-0.994000	9.006600	19.223900	4.330000  # Oh
463	1	4	-0.994000	4.266400	21.963500	4.310000  # Oh
464	1	4	-0.994000	4.266300	25.414100	4.339900  # Oh
465	1	4	-0.994000	6.836500	20.944000	4.339900  # Oh
466	1	4	-0.994000	6.856500	26.433600	4.310000  # Oh
467	1	4	-0.994000	6.446200	23.694000	4.330000  # Oh
468	1	4	-0.994000	7.446300	22.014100	2.319800  # Oh
469	1	2	0.400000	5.336500	18.373800	2.319800  # H
470	1	2	0.400000	4.116200	19.173900	5.250200  # H
471	1	2	0.400000	4.016600	22.223900	5.200200  # H
472	1	2	0.400000	6.586400	20.533600	5.180300  # H
473	1	2	0.400000	4.026500	25.003700	5.180300  # H
474	1	2	0.400000	6.576500	17.753800	5.200200  # H
475	1	2	0.400000	6.716600	23.644000	5.250200  # H
476	1	2	0.400000	7.926500	22.843900	2.319800  # H
477	1	1	1.782000	10.980700	22.213500	3.319900  # Alo
478	1	1	1.782000	13.570500	20.714000	3.319900  # Alo
479	1	1	1.782000	11.010700	25.184000	3.319900  # Alo
480	1	1	1.782000	13.570200	26.683600	3.319900  # Alo
481	1	6	1.884000	15.300400	20.894000	0.649900  # Sit
482	1	6	1.884000	12.810600	19.353600	0.669800  # Sit
483	1	6	1.884000	10.250700	23.823600	0.669800  # Sit
484	1	6	1.884000	12.740500	25.364100	0.649900  # Sit
485	1	3	-0.942000	10.390700	22.354000	0.000000  # Ob
486	1	3	-0.942000	11.370500	19.923600	0.209700  # Ob
487	1	3	-0.942000	11.410500	24.714300	0.010000  # Ob
488	1	3	-0.942000	13.970400	20.244200	0.010000  # Ob
489	1	3	-0.942000	13.960500	24.393700	0.209700  # Ob
490	1	3	-0.942000	12.950500	17.883900	0.000000  # Ob
491	1	5	-1.065000	10.030500	20.924300	2.259900  # Op
492	1	5	-1.065000	10.360700	23.704000	2.269800  # Op
493	1	5	-1.065000	12.920500	19.234000	2.269800  # Op
494	1	5	-1.065000	12.620500	25.393500	2.259900  # Op
495	1	4	-0.994000	10.030700	26.484200	2.319800  # Oh
496	1	4	-0.994000	14.160600	19.223900	4.330000  # Oh
497	1	4	-0.994000	9.420400	21.963500	4.310000  # Oh
498	1	4	-0.994000	9.420300	25.414100	4.339900  # Oh
499	1	4	-0.994000	11.990500	20.944000	4.339900  # Oh
500	1	4	-0.994000	12.010500	26.433600	4.310000  # Oh
501	1	4	-0.994000	11.600200	23.694000	4.330000  # Oh
502	1	4	-0.994000	12.600300	22.014100	2.319800  # Oh
503	1	2	0.400000	10.490500	18.373800	2.319800  # H
504	1	2	0.400000	9.270200	19.173900	5.250200  # H
505	1	2	0.400000	9.170600	22.223900	5.200200  # H
506	1	2	0.400000	11.740400	20.533600	5.180300  # H
507	1	2	0.400000	9.180500	25.003700	5.180300  # H
508	1	2	0.400000	11.730500	17.753800	5.200200  # H
509	1	2	0.400000	11.870600	23.644000	5.250200  # H
510	1	2	0.400000	13.080500	22.843900	2.319800  # H
511	1	1	1.782000	16.134700	22.213500	3.319900  # Alo
512	1	1	1.782000	18.724500	20.714000	3.319900  # Alo
513	1	1	1.782000	16.164700	25.184000	3.319900  # Alo
514	1	1	1.782000	18.724200	26.683600	3.319900  # Alo
515	1	6	1.884000	20.454400	20.894000	0.649900  # Sit
516	1	6	1.884000	17.964600	19.353600	0.669800  # Sit
517	1	6	1.884000	15.404700	23.823600	0.669800  # Sit
518	1	6	1.884000	17.894500	25.364100	0.649900  # Sit
519	1	3	-0.942000	15.544700	22.354000	0.000000  # Ob
520	1	3	-0.942000	16.524500	19.923600	0.209700  # Ob
521	1	3	-0.942000	16.564500	24.714300	0.010000  # Ob
522	1	3	-0.942000	19.124400	20.244200	0.010000  # Ob
523	1	3	-0.942000	19.114500	24.393700	0.209700  # Ob
524	1	3	-0.942000	18.104500	17.883900	0.000000  # Ob
525	1	5	-1.065000	15.184500	20.924300	2.259900  # Op
526	1	5	-1.065000	15.514700	23.704000	2.269800  # Op
527	1	5	-1.065000	18.074500	19.234000	2.269800  # Op
528	1	5	-1.065000	17.774500	25.393500	2.259900  # Op
529	1	4	-0.994000	15.184700	26.484200	2.319800  # Oh
530	1	4	-0.994000	19.314600	19.223900	4.330000  # Oh
531	1	4	-0.994000	14.574400	21.963500	4.310000  # Oh
532	1	4	-0.994000	14.574300	25.414100	4.339900  # Oh
533	1	4	-0.994000	17.144500	20.944000	4.339900  # Oh
534	1	4	-0.994000	17.164500	26.433600	4.310000  # Oh
535	1	4	-0.994000	16.754200	23.694000	4.330000  # Oh
536	1	4	-0.994000	17.754300	22.014100	2.319800  # Oh
537	1	2	0.400000	15.644500	18.373800	2.319800  # H
538	1	2	0.400000	14.424200	19.173900	5.250200  # H
539	1	2	0.400000	14.324600	22.223900	5.200200  # H
540	1	2	0.400000	16.894400	20.533600	5.180300  # H
541	1	2	0.400000	14.334500	25.003700	5.180300  # H
542	1	2	0.400000	16.884500	17.753800	5.200200  # H
543	1	2	0.400000	17.024600	23.644000	5.250200  # H
544	1	2	0.400000	18.234500	22.843900	2.319800  # H
545	1	1	1.782000	21.288700	22.213500	3.319900  # Alo
546	1	1	1.782000	23.878500	20.714000	3.319900  # Alo
547	1	1	1.782000	21.318700	25.184000	3.319900  # Alo
548	1	1	1.782000	23.878200	26.683600	3.319900  # Alo
549	1	6	1.884000	25.608400	20.894000	0.649900  # Sit
550	1	6	1.884000	23.118600	19.353600	0.669800  # Sit
551	1	6	1.884000	20.558700	23.823600	0.669800  # Sit
552	1	6	1.884000	23.048500	25.364100	0.649900  # Sit
553	1	3	-0.942000	20.698700	22.354000	0.000000  # Ob
554	1	3	-0.942000	21.678500	19.923600	0.209700  # Ob
555	1	3	-0.942000	21.718500	24.714300	0.010000  # Ob
556	1	3	-0.942000	24.278400	20.244200	0.010000  # Ob
557	1	3	-0.942000	24.268500	24.393700	0.209700  # Ob
558	1	3	-0.942000	23.258500	17.883900	0.000000  # Ob
559	1	5	-1.065000	20.338500	20.924300	2.259900  # Op
560	1	5	-1.065000	20.668700	23.704000	2.269800  # Op
561	1	5	-1.065000	23.228500	19.234000	2.269800  # Op
562	1	5	-1.065000	22.928500	25.393500	2.259900  # Op
563	1	4	-0.994000	20.338700	26.484200	2.319800  # Oh
564	1	4	-0.994000	24.468600	19.223900	4.330000  # Oh
565	1	4	-0.994000	19.728400	21.963500	4.310000  # Oh
566	1	4	-0.994000	19.728300	25.414100	4.339900  # Oh
567	1	4	-0.994000	22.298500	20.944000	4.339900  # Oh
568	1	4	-0.994000	22.318500	26.433600	4.310000  # Oh
569	1	4	-0.994000	21.908200	23.694000	4.330000  # Oh
570	1	4	-0.994000	22.908300	22.014100	2.319800  # Oh
571	1	2	0.400000	20.798500	18.373800	2.319800  # H