LAMMPS data file generated by atomipy on 2025-04-05 11:39:47
# Total charge of the system is 0.00000

2040 atoms
480 bonds
7560 angles
0 dihedrals
0 impropers

6 atom types
1 bond types
10 angle types
0 dihedral types
0 improper types

0.0 25.770000 xlo xhi
0.0 26.825837 ylo yhi
0.0 28.533498 zlo zhi
0.000000 -0.968880 0.000000 xy xz yz

Masses

1 26.982000  # Alo
2 1.007840  # H
3 15.999400  # Ob
4 15.999400  # Oh
5 15.999400  # Op
6 28.085000  # Sit

Atoms

1	1	1	1.575000	0.610000	4.330000	3.320000  # Alo
2	1	1	1.575000	3.200000	2.830000	3.320000  # Alo
3	1	6	2.100000	4.930000	3.010000	0.650000  # Sit
4	1	6	2.100000	2.440000	1.470000	0.670000  # Sit
5	1	5	-1.050000	-0.340000	3.040000	2.260000  # Op
6	1	5	-1.050000	-0.010000	5.820000	2.270000  # Op
7	1	3	-1.050000	0.020000	4.470000	0.000000  # Ob
8	1	3	-1.050000	1.000000	2.040000	0.210000  # Ob
9	1	3	-1.050000	1.040000	6.830000	0.010000  # Ob
10	1	4	-0.950000	-0.340000	8.600000	2.320000  # Oh
11	1	4	-0.950000	3.790000	1.340000	4.330000  # Oh
12	1	4	-0.950000	-0.950000	4.080000	4.310000  # Oh
13	1	4	-0.950000	-0.950000	7.530000	4.340000  # Oh
14	1	2	0.425000	0.120000	0.500000	2.320000  # H
15	1	2	0.425000	-1.090000	1.290000	5.270000  # H
16	1	2	0.425000	-1.200000	4.350000	5.220000  # H
17	1	2	0.425000	1.370000	2.640000	5.190000  # H
18	1	1	1.575000	3.200000	8.800000	3.320000  # Alo
19	1	1	1.575000	0.640000	7.300000	3.320000  # Alo
20	1	6	2.100000	2.370000	7.480000	0.650000  # Sit
21	1	6	2.100000	-0.120000	5.940000	0.670000  # Sit
22	1	5	-1.050000	2.250000	7.510000	2.260000  # Op
23	1	5	-1.050000	2.550000	1.350000	2.270000  # Op
24	1	3	-1.050000	2.580000	0.000000	0.000000  # Ob
25	1	3	-1.050000	3.590000	6.510000	0.210000  # Ob
26	1	3	-1.050000	3.600000	2.360000	0.010000  # Ob
27	1	4	-0.950000	2.230000	4.130000	2.320000  # Oh
28	1	4	-0.950000	1.230000	5.810000	4.330000  # Oh
29	1	4	-0.950000	1.640000	8.550000	4.310000  # Oh
30	1	4	-0.950000	1.620000	3.060000	4.340000  # Oh
31	1	2	0.425000	2.720000	4.970000	2.320000  # H
32	1	2	0.425000	1.510000	5.760000	5.270000  # H
33	1	2	0.425000	1.360000	-0.130000	5.220000  # H
34	1	2	0.425000	-1.200000	7.110000	5.190000  # H
35	1	1	1.575000	5.770000	4.330000	3.320000  # Alo
36	1	1	1.575000	8.360000	2.830000	3.320000  # Alo
37	1	6	2.100000	10.090000	3.010000	0.650000  # Sit
38	1	6	2.100000	7.590000	1.470000	0.670000  # Sit
39	1	5	-1.050000	4.810000	3.040000	2.260000  # Op
40	1	5	-1.050000	5.150000	5.820000	2.270000  # Op
41	1	3	-1.050000	5.170000	4.470000	0.000000  # Ob
42	1	3	-1.050000	6.150000	2.040000	0.210000  # Ob
43	1	3	-1.050000	6.190000	6.830000	0.010000  # Ob
44	1	4	-0.950000	4.820000	8.600000	2.320000  # Oh
45	1	4	-0.950000	8.940000	1.340000	4.330000  # Oh
46	1	4	-0.950000	4.200000	4.080000	4.310000  # Oh
47	1	4	-0.950000	4.210000	7.530000	4.340000  # Oh
48	1	2	0.425000	5.280000	0.500000	2.320000  # H
49	1	2	0.425000	4.070000	1.290000	5.270000  # H
50	1	2	0.425000	3.950000	4.350000	5.220000  # H
51	1	2	0.425000	6.520000	2.640000	5.190000  # H
52	1	1	1.575000	8.360000	8.800000	3.320000  # Alo
53	1	1	1.575000	5.800000	7.300000	3.320000  # Alo
54	1	6	2.100000	7.530000	7.480000	0.650000  # Sit
55	1	6	2.100000	5.030000	5.940000	0.670000  # Sit
56	1	5	-1.050000	7.400000	7.510000	2.260000  # Op
57	1	5	-1.050000	7.710000	1.350000	2.270000  # Op
58	1	3	-1.050000	7.730000	0.000000	0.000000  # Ob
59	1	3	-1.050000	8.750000	6.510000	0.210000  # Ob
60	1	3	-1.050000	8.750000	2.360000	0.010000  # Ob
61	1	4	-0.950000	7.380000	4.130000	2.320000  # Oh
62	1	4	-0.950000	6.380000	5.810000	4.330000  # Oh
63	1	4	-0.950000	6.790000	8.550000	4.310000  # Oh
64	1	4	-0.950000	6.770000	3.060000	4.340000  # Oh
65	1	2	0.425000	7.870000	4.970000	2.320000  # H
66	1	2	0.425000	6.660000	5.760000	5.270000  # H
67	1	2	0.425000	6.510000	-0.130000	5.220000  # H
68	1	2	0.425000	3.960000	7.110000	5.190000  # H
69	1	1	1.575000	10.920000	4.330000	3.320000  # Alo
70	1	1	1.575000	13.510000	2.830000	3.320000  # Alo
71	1	6	2.100000	15.240000	3.010000	0.650000  # Sit
72	1	6	2.100000	12.750000	1.470000	0.670000  # Sit
73	1	5	-1.050000	9.960000	3.040000	2.260000  # Op
74	1	5	-1.050000	10.300000	5.820000	2.270000  # Op
75	1	3	-1.050000	10.320000	4.470000	0.000000  # Ob
76	1	3	-1.050000	11.310000	2.040000	0.210000  # Ob
77	1	3	-1.050000	11.350000	6.830000	0.010000  # Ob
78	1	4	-0.950000	9.970000	8.600000	2.320000  # Oh
79	1	4	-0.950000	14.100000	1.340000	4.330000  # Oh
80	1	4	-0.950000	9.350000	4.080000	4.310000  # Oh
81	1	4	-0.950000	9.360000	7.530000	4.340000  # Oh
82	1	2	0.425000	10.430000	0.500000	2.320000  # H
83	1	2	0.425000	9.220000	1.290000	5.270000  # H
84	1	2	0.425000	9.110000	4.350000	5.220000  # H
85	1	2	0.425000	11.670000	2.640000	5.190000  # H
86	1	1	1.575000	13.510000	8.800000	3.320000  # Alo
87	1	1	1.575000	10.950000	7.300000	3.320000  # Alo
88	1	6	2.100000	12.680000	7.480000	0.650000  # Sit
89	1	6	2.100000	10.190000	5.940000	0.670000  # Sit
90	1	5	-1.050000	12.560000	7.510000	2.260000  # Op
91	1	5	-1.050000	12.860000	1.350000	2.270000  # Op
92	1	3	-1.050000	12.880000	0.000000	0.000000  # Ob
93	1	3	-1.050000	13.900000	6.510000	0.210000  # Ob
94	1	3	-1.050000	13.910000	2.360000	0.010000  # Ob
95	1	4	-0.950000	12.530000	4.130000	2.320000  # Oh
96	1	4	-0.950000	11.540000	5.810000	4.330000  # Oh
97	1	4	-0.950000	11.950000	8.550000	4.310000  # Oh
98	1	4	-0.950000	11.920000	3.060000	4.340000  # Oh
99	1	2	0.425000	13.020000	4.970000	2.320000  # H
100	1	2	0.425000	11.810000	5.760000	5.270000  # H
101	1	2	0.425000	11.670000	-0.130000	5.220000  # H
102	1	2	0.425000	9.110000	7.110000	5.190000  # H
103	1	1	1.575000	16.070000	4.330000	3.320000  # Alo
104	1	1	1.575000	18.670000	2.830000	3.320000  # Alo
105	1	6	2.100000	20.400000	3.010000	0.650000  # Sit
106	1	6	2.100000	17.900000	1.470000	0.670000  # Sit
107	1	5	-1.050000	15.120000	3.040000	2.260000  # Op
108	1	5	-1.050000	15.450000	5.820000	2.270000  # Op
109	1	3	-1.050000	15.480000	4.470000	0.000000  # Ob
110	1	3	-1.050000	16.460000	2.040000	0.210000  # Ob
111	1	3	-1.050000	16.500000	6.830000	0.010000  # Ob
112	1	4	-0.950000	15.130000	8.600000	2.320000  # Oh
113	1	4	-0.950000	19.250000	1.340000	4.330000  # Oh
114	1	4	-0.950000	14.510000	4.080000	4.310000  # Oh
115	1	4	-0.950000	14.520000	7.530000	4.340000  # Oh
116	1	2	0.425000	15.590000	0.500000	2.320000  # H
117	1	2	0.425000	14.370000	1.290000	5.270000  # H
118	1	2	0.425000	14.260000	4.350000	5.220000  # H
119	1	2	0.425000	16.830000	2.640000	5.190000  # H
120	1	1	1.575000	18.670000	8.800000	3.320000  # Alo
121	1	1	1.575000	16.110000	7.300000	3.320000  # Alo
122	1	6	2.100000	17.840000	7.480000	0.650000  # Sit
123	1	6	2.100000	15.340000	5.940000	0.670000  # Sit
124	1	5	-1.050000	17.710000	7.510000	2.260000  # Op
125	1	5	-1.050000	18.010000	1.350000	2.270000  # Op
126	1	3	-1.050000	18.040000	0.000000	0.000000  # Ob
127	1	3	-1.050000	19.060000	6.510000	0.210000  # Ob
128	1	3	-1.050000	19.060000	2.360000	0.010000  # Ob
129	1	4	-0.950000	17.690000	4.130000	2.320000  # Oh
130	1	4	-0.950000	16.690000	5.810000	4.330000  # Oh
131	1	4	-0.950000	17.100000	8.550000	4.310000  # Oh
132	1	4	-0.950000	17.080000	3.060000	4.340000  # Oh
133	1	2	0.425000	18.180000	4.970000	2.320000  # H
134	1	2	0.425000	16.970000	5.760000	5.270000  # H
135	1	2	0.425000	16.820000	-0.130000	5.220000  # H
136	1	2	0.425000	14.270000	7.110000	5.190000  # H
137	1	1	1.575000	21.230000	4.330000	3.320000  # Alo
138	1	1	1.575000	23.820000	2.830000	3.320000  # Alo
139	1	6	2.100000	25.550000	3.010000	0.650000  # Sit
140	1	6	2.100000	23.050000	1.470000	0.670000  # Sit
141	1	5	-1.050000	20.270000	3.040000	2.260000  # Op
142	1	5	-1.050000	20.610000	5.820000	2.270000  # Op
143	1	3	-1.050000	20.630000	4.470000	0.000000  # Ob
144	1	3	-1.050000	21.620000	2.040000	0.210000  # Ob
145	1	3	-1.050000	21.650000	6.830000	0.010000  # Ob
146	1	4	-0.950000	20.280000	8.600000	2.320000  # Oh
147	1	4	-0.950000	24.400000	1.340000	4.330000  # Oh
148	1	4	-0.950000	19.660000	4.080000	4.310000  # Oh
149	1	4	-0.950000	19.670000	7.530000	4.340000  # Oh
150	1	2	0.425000	20.740000	0.500000	2.320000  # H
151	1	2	0.425000	19.530000	1.290000	5.270000  # H
152	1	2	0.425000	19.410000	4.350000	5.220000  # H
153	1	2	0.425000	21.980000	2.640000	5.190000  # H
154	1	1	1.575000	23.820000	8.800000	3.320000  # Alo
155	1	1	1.575000	21.260000	7.300000	3.320000  # Alo
156	1	6	2.100000	22.990000	7.480000	0.650000  # Sit
157	1	6	2.100000	20.490000	5.940000	0.670000  # Sit
158	1	5	-1.050000	22.860000	7.510000	2.260000  # Op
159	1	5	-1.050000	23.170000	1.350000	2.270000  # Op
160	1	3	-1.050000	23.190000	0.000000	0.000000  # Ob
161	1	3	-1.050000	24.210000	6.510000	0.210000  # Ob
162	1	3	-1.050000	24.210000	2.360000	0.010000  # Ob
163	1	4	-0.950000	22.840000	4.130000	2.320000  # Oh
164	1	4	-0.950000	21.840000	5.810000	4.330000  # Oh
165	1	4	-0.950000	22.250000	8.550000	4.310000  # Oh
166	1	4	-0.950000	22.230000	3.060000	4.340000  # Oh
167	1	2	0.425000	23.330000	4.970000	2.320000  # H
168	1	2	0.425000	22.120000	5.760000	5.270000  # H
169	1	2	0.425000	21.970000	-0.130000	5.220000  # H
170	1	2	0.425000	19.420000	7.110000	5.190000  # H
171	1	1	1.575000	0.640000	13.270000	3.320000  # Alo
172	1	1	1.575000	3.240000	11.770000	3.320000  # Alo
173	1	6	2.100000	4.970000	11.960000	0.650000  # Sit
174	1	6	2.100000	2.470000	10.410000	0.670000  # Sit
175	1	5	-1.050000	-0.310000	11.980000	2.260000  # Op
176	1	5	-1.050000	0.020000	14.770000	2.270000  # Op
177	1	3	-1.050000	0.050000	13.410000	0.000000  # Ob
178	1	3	-1.050000	1.030000	10.980000	0.210000  # Ob
179	1	3	-1.050000	1.070000	15.770000	0.010000  # Ob
180	1	4	-0.950000	-0.300000	17.550000	2.320000  # Oh
181	1	4	-0.950000	3.820000	10.280000	4.330000  # Oh
182	1	4	-0.950000	-0.920000	13.020000	4.310000  # Oh
183	1	4	-0.950000	-0.910000	16.470000	4.340000  # Oh
184	1	2	0.425000	0.160000	9.440000	2.320000  # H
185	1	2	0.425000	-1.060000	10.230000	5.270000  # H
186	1	2	0.425000	-1.170000	13.290000	5.220000  # H
187	1	2	0.425000	1.400000	11.590000	5.190000  # H
188	1	1	1.575000	3.240000	17.740000	3.320000  # Alo
189	1	1	1.575000	0.680000	16.240000	3.320000  # Alo
190	1	6	2.100000	2.400000	16.430000	0.650000  # Sit
191	1	6	2.100000	-0.090000	14.880000	0.670000  # Sit
192	1	5	-1.050000	2.280000	16.450000	2.260000  # Op
193	1	5	-1.050000	2.580000	10.290000	2.270000  # Op
194	1	3	-1.050000	2.610000	8.940000	0.000000  # Ob
195	1	3	-1.050000	3.630000	15.450000	0.210000  # Ob
196	1	3	-1.050000	3.630000	11.300000	0.010000  # Ob
197	1	4	-0.950000	2.260000	13.070000	2.320000  # Oh
198	1	4	-0.950000	1.260000	14.750000	4.330000  # Oh
199	1	4	-0.950000	1.670000	17.490000	4.310000  # Oh
200	1	4	-0.950000	1.650000	12.000000	4.340000  # Oh
201	1	2	0.425000	2.750000	13.920000	2.320000  # H
202	1	2	0.425000	1.540000	14.700000	5.270000  # H
203	1	2	0.425000	1.390000	8.820000	5.220000  # H
204	1	2	0.425000	-1.160000	16.060000	5.190000  # H
205	1	1	1.575000	5.800000	13.270000	3.320000  # Alo
206	1	1	1.575000	8.390000	11.770000	3.320000  # Alo
207	1	6	2.100000	10.120000	11.960000	0.650000  # Sit
208	1	6	2.100000	7.620000	10.410000	0.670000  # Sit
209	1	5	-1.050000	4.840000	11.980000	2.260000  # Op
210	1	5	-1.050000	5.180000	14.770000	2.270000  # Op
211	1	3	-1.050000	5.200000	13.410000	0.000000  # Ob
212	1	3	-1.050000	6.190000	10.980000	0.210000  # Ob
213	1	3	-1.050000	6.220000	15.770000	0.010000  # Ob
214	1	4	-0.950000	4.850000	17.550000	2.320000  # Oh
215	1	4	-0.950000	8.970000	10.280000	4.330000  # Oh
216	1	4	-0.950000	4.230000	13.020000	4.310000  # Oh
217	1	4	-0.950000	4.240000	16.470000	4.340000  # Oh
218	1	2	0.425000	5.310000	9.440000	2.320000  # H
219	1	2	0.425000	4.100000	10.230000	5.270000  # H
220	1	2	0.425000	3.980000	13.290000	5.220000  # H
221	1	2	0.425000	6.550000	11.590000	5.190000  # H
222	1	1	1.575000	8.390000	17.740000	3.320000  # Alo
223	1	1	1.575000	5.830000	16.240000	3.320000  # Alo
224	1	6	2.100000	7.560000	16.430000	0.650000  # Sit
225	1	6	2.100000	5.060000	14.880000	0.670000  # Sit
226	1	5	-1.050000	7.430000	16.450000	2.260000  # Op
227	1	5	-1.050000	7.740000	10.290000	2.270000  # Op
228	1	3	-1.050000	7.760000	8.940000	0.000000  # Ob
229	1	3	-1.050000	8.780000	15.450000	0.210000  # Ob
230	1	3	-1.050000	8.780000	11.300000	0.010000  # Ob
231	1	4	-0.950000	7.410000	13.070000	2.320000  # Oh
232	1	4	-0.950000	6.410000	14.750000	4.330000  # Oh
233	1	4	-0.950000	6.820000	17.490000	4.310000  # Oh
234	1	4	-0.950000	6.800000	12.000000	4.340000  # Oh
235	1	2	0.425000	7.900000	13.920000	2.320000  # H
236	1	2	0.425000	6.690000	14.700000	5.270000  # H
237	1	2	0.425000	6.540000	8.820000	5.220000  # H
238	1	2	0.425000	3.990000	16.060000	5.190000  # H
239	1	1	1.575000	10.950000	13.270000	3.320000  # Alo
240	1	1	1.575000	13.540000	11.770000	3.320000  # Alo
241	1	6	2.100000	15.270000	11.960000	0.650000  # Sit
242	1	6	2.100000	12.780000	10.410000	0.670000  # Sit
243	1	5	-1.050000	10.000000	11.980000	2.260000  # Op
244	1	5	-1.050000	10.330000	14.770000	2.270000  # Op
245	1	3	-1.050000	10.360000	13.410000	0.000000  # Ob
246	1	3	-1.050000	11.340000	10.980000	0.210000  # Ob
247	1	3	-1.050000	11.380000	15.770000	0.010000  # Ob
248	1	4	-0.950000	10.000000	17.550000	2.320000  # Oh
249	1	4	-0.950000	14.130000	10.280000	4.330000  # Oh
250	1	4	-0.950000	9.390000	13.020000	4.310000  # Oh
251	1	4	-0.950000	9.390000	16.470000	4.340000  # Oh
252	1	2	0.425000	10.460000	9.440000	2.320000  # H
253	1	2	0.425000	9.250000	10.230000	5.270000  # H
254	1	2	0.425000	9.140000	13.290000	5.220000  # H
255	1	2	0.425000	11.700000	11.590000	5.190000  # H
256	1	1	1.575000	13.540000	17.740000	3.320000  # Alo
257	1	1	1.575000	10.980000	16.240000	3.320000  # Alo
258	1	6	2.100000	12.710000	16.430000	0.650000  # Sit
259	1	6	2.100000	10.220000	14.880000	0.670000  # Sit
260	1	5	-1.050000	12.590000	16.450000	2.260000  # Op
261	1	5	-1.050000	12.890000	10.290000	2.270000  # Op
262	1	3	-1.050000	12.920000	8.940000	0.000000  # Ob
263	1	3	-1.050000	13.930000	15.450000	0.210000  # Ob
264	1	3	-1.050000	13.940000	11.300000	0.010000  # Ob
265	1	4	-0.950000	12.570000	13.070000	2.320000  # Oh
266	1	4	-0.950000	11.570000	14.750000	4.330000  # Oh
267	1	4	-0.950000	11.980000	17.490000	4.310000  # Oh
268	1	4	-0.950000	11.960000	12.000000	4.340000  # Oh
269	1	2	0.425000	13.060000	13.920000	2.320000  # H
270	1	2	0.425000	11.840000	14.700000	5.270000  # H
271	1	2	0.425000	11.700000	8.820000	5.220000  # H
272	1	2	0.425000	9.140000	16.060000	5.190000  # H
273	1	1	1.575000	16.100000	13.270000	3.320000  # Alo
274	1	1	1.575000	18.700000	11.770000	3.320000  # Alo
275	1	6	2.100000	20.430000	11.960000	0.650000  # Sit
276	1	6	2.100000	17.930000	10.410000	0.670000  # Sit
277	1	5	-1.050000	15.150000	11.980000	2.260000  # Op
278	1	5	-1.050000	15.490000	14.770000	2.270000  # Op
279	1	3	-1.050000	15.510000	13.410000	0.000000  # Ob
280	1	3	-1.050000	16.490000	10.980000	0.210000  # Ob
281	1	3	-1.050000	16.530000	15.770000	0.010000  # Ob
282	1	4	-0.950000	15.160000	17.550000	2.320000  # Oh
283	1	4	-0.950000	19.280000	10.280000	4.330000  # Oh
284	1	4	-0.950000	14.540000	13.020000	4.310000  # Oh
285	1	4	-0.950000	14.550000	16.470000	4.340000  # Oh
286	1	2	0.425000	15.620000	9.440000	2.320000  # H
287	1	2	0.425000	14.410000	10.230000	5.270000  # H
288	1	2	0.425000	14.290000	13.290000	5.220000  # H
289	1	2	0.425000	16.860000	11.590000	5.190000  # H
290	1	1	1.575000	18.700000	17.740000	3.320000  # Alo
291	1	1	1.575000	16.140000	16.240000	3.320000  # Alo
292	1	6	2.100000	17.870000	16.430000	0.650000  # Sit
293	1	6	2.100000	15.370000	14.880000	0.670000  # Sit
294	1	5	-1.050000	17.740000	16.450000	2.260000  # Op
295	1	5	-1.050000	18.050000	10.290000	2.270000  # Op
296	1	3	-1.050000	18.070000	8.940000	0.000000  # Ob
297	1	3	-1.050000	19.090000	15.450000	0.210000  # Ob
298	1	3	-1.050000	19.090000	11.300000	0.010000  # Ob
299	1	4	-0.950000	17.720000	13.070000	2.320000  # Oh
300	1	4	-0.950000	16.720000	14.750000	4.330000  # Oh
301	1	4	-0.950000	17.130000	17.490000	4.310000  # Oh
302	1	4	-0.950000	17.110000	12.000000	4.340000  # Oh
303	1	2	0.425000	18.210000	13.920000	2.320000  # H
304	1	2	0.425000	17.000000	14.700000	5.270000  # H
305	1	2	0.425000	16.850000	8.820000	5.220000  # H
306	1	2	0.425000	14.300000	16.060000	5.190000  # H
307	1	1	1.575000	21.260000	13.270000	3.320000  # Alo
308	1	1	1.575000	23.850000	11.770000	3.320000  # Alo
309	1	6	2.100000	25.580000	11.960000	0.650000  # Sit
310	1	6	2.100000	23.090000	10.410000	0.670000  # Sit
311	1	5	-1.050000	20.300000	11.980000	2.260000  # Op
312	1	5	-1.050000	20.640000	14.770000	2.270000  # Op
313	1	3	-1.050000	20.660000	13.410000	0.000000  # Ob
314	1	3	-1.050000	21.650000	10.980000	0.210000  # Ob
315	1	3	-1.050000	21.690000	15.770000	0.010000  # Ob
316	1	4	-0.950000	20.310000	17.550000	2.320000  # Oh
317	1	4	-0.950000	24.440000	10.280000	4.330000  # Oh
318	1	4	-0.950000	19.690000	13.020000	4.310000  # Oh
319	1	4	-0.950000	19.700000	16.470000	4.340000  # Oh
320	1	2	0.425000	20.770000	9.440000	2.320000  # H
321	1	2	0.425000	19.560000	10.230000	5.270000  # H
322	1	2	0.425000	19.440000	13.290000	5.220000  # H
323	1	2	0.425000	22.010000	11.590000	5.190000  # H
324	1	1	1.575000	23.850000	17.740000	3.320000  # Alo
325	1	1	1.575000	21.290000	16.240000	3.320000  # Alo
326	1	6	2.100000	23.020000	16.430000	0.650000  # Sit
327	1	6	2.100000	20.520000	14.880000	0.670000  # Sit
328	1	5	-1.050000	22.900000	16.450000	2.260000  # Op
329	1	5	-1.050000	23.200000	10.290000	2.270000  # Op
330	1	3	-1.050000	23.220000	8.940000	0.000000  # Ob
331	1	3	-1.050000	24.240000	15.450000	0.210000  # Ob
332	1	3	-1.050000	24.250000	11.300000	0.010000  # Ob
333	1	4	-0.950000	22.870000	13.070000	2.320000  # Oh
334	1	4	-0.950000	21.870000	14.750000	4.330000  # Oh
335	1	4	-0.950000	22.290000	17.490000	4.310000  # Oh
336	1	4	-0.950000	22.260000	12.000000	4.340000  # Oh
337	1	2	0.425000	23.360000	13.920000	2.320000  # H
338	1	2	0.425000	22.150000	14.700000	5.270000  # H
339	1	2	0.425000	22.010000	8.820000	5.220000  # H
340	1	2	0.425000	19.450000	16.060000	5.190000  # H
341	1	1	1.575000	0.670000	22.210000	3.320000  # Alo
342	1	1	1.575000	3.270000	20.710000	3.320000  # Alo
343	1	6	2.100000	5.000000	20.900000	0.650000  # Sit
344	1	6	2.100000	2.500000	19.350000	0.670000  # Sit
345	1	5	-1.050000	-0.280000	20.920000	2.260000  # Op
346	1	5	-1.050000	0.050000	23.710000	2.270000  # Op
347	1	3	-1.050000	0.080000	22.350000	0.000000  # Ob
348	1	3	-1.050000	1.060000	19.920000	0.210000  # Ob
349	1	3	-1.050000	1.100000	24.720000	0.010000  # Ob
350	1	4	-0.950000	-0.270000	26.490000	2.320000  # Oh
351	1	4	-0.950000	3.850000	19.220000	4.330000  # Oh
352	1	4	-0.950000	-0.890000	21.960000	4.310000  # Oh
353	1	4	-0.950000	-0.880000	25.410000	4.340000  # Oh
354	1	2	0.425000	0.190000	18.390000	2.320000  # H
355	1	2	0.425000	-1.030000	19.170000	5.270000  # H
356	1	2	0.425000	-1.140000	22.230000	5.220000  # H
357	1	2	0.425000	1.430000	20.530000	5.190000  # H
358	1	1	1.575000	3.270000	26.680000	3.320000  # Alo
359	1	1	1.575000	0.710000	25.180000	3.320000  # Alo
360	1	6	2.100000	2.440000	25.370000	0.650000  # Sit
361	1	6	2.100000	-0.060000	23.820000	0.670000  # Sit
362	1	5	-1.050000	2.310000	25.390000	2.260000  # Op
363	1	5	-1.050000	2.620000	19.240000	2.270000  # Op
364	1	3	-1.050000	2.640000	17.880000	0.000000  # Ob
365	1	3	-1.050000	3.660000	24.400000	0.210000  # Ob
366	1	3	-1.050000	3.660000	20.240000	0.010000  # Ob
367	1	4	-0.950000	2.290000	22.020000	2.320000  # Oh
368	1	4	-0.950000	1.290000	23.690000	4.330000  # Oh
369	1	4	-0.950000	1.700000	26.430000	4.310000  # Oh
370	1	4	-0.950000	1.680000	20.940000	4.340000  # Oh
371	1	2	0.425000	2.780000	22.860000	2.320000  # H
372	1	2	0.425000	1.570000	23.640000	5.270000  # H
373	1	2	0.425000	1.420000	17.760000	5.220000  # H
374	1	2	0.425000	-1.130000	25.000000	5.190000  # H
375	1	1	1.575000	5.830000	22.210000	3.320000  # Alo
376	1	1	1.575000	8.420000	20.710000	3.320000  # Alo
377	1	6	2.100000	10.150000	20.900000	0.650000  # Sit
378	1	6	2.100000	7.650000	19.350000	0.670000  # Sit
379	1	5	-1.050000	4.870000	20.920000	2.260000  # Op
380	1	5	-1.050000	5.210000	23.710000	2.270000  # Op
381	1	3	-1.050000	5.230000	22.350000	0.000000  # Ob
382	1	3	-1.050000	6.220000	19.920000	0.210000  # Ob
383	1	3	-1.050000	6.250000	24.720000	0.010000  # Ob
384	1	4	-0.950000	4.880000	26.490000	2.320000  # Oh
385	1	4	-0.950000	9.000000	19.220000	4.330000  # Oh
386	1	4	-0.950000	4.260000	21.960000	4.310000  # Oh
387	1	4	-0.950000	4.270000	25.410000	4.340000  # Oh
388	1	2	0.425000	5.340000	18.390000	2.320000  # H
389	1	2	0.425000	4.130000	19.170000	5.270000  # H
390	1	2	0.425000	4.010000	22.230000	5.220000  # H
391	1	2	0.425000	6.580000	20.530000	5.190000  # H
392	1	1	1.575000	8.420000	26.680000	3.320000  # Alo
393	1	1	1.575000	5.860000	25.180000	3.320000  # Alo
394	1	6	2.100000	7.590000	25.370000	0.650000  # Sit
395	1	6	2.100000	5.090000	23.820000	0.670000  # Sit
396	1	5	-1.050000	7.460000	25.390000	2.260000  # Op
397	1	5	-1.050000	7.770000	19.240000	2.270000  # Op
398	1	3	-1.050000	7.790000	17.880000	0.000000  # Ob
399	1	3	-1.050000	8.810000	24.400000	0.210000  # Ob
400	1	3	-1.050000	8.810000	20.240000	0.010000  # Ob
401	1	4	-0.950000	7.440000	22.020000	2.320000  # Oh
402	1	4	-0.950000	6.440000	23.690000	4.330000  # Oh
403	1	4	-0.950000	6.850000	26.430000	4.310000  # Oh
404	1	4	-0.950000	6.830000	20.940000	4.340000  # Oh
405	1	2	0.425000	7.930000	22.860000	2.320000  # H
406	1	2	0.425000	6.720000	23.640000	5.270000  # H
407	1	2	0.425000	6.570000	17.760000	5.220000  # H
408	1	2	0.425000	4.020000	25.000000	5.190000  # H
409	1	1	1.575000	10.980000	22.210000	3.320000  # Alo
410	1	1	1.575000	13.580000	20.710000	3.320000  # Alo
411	1	6	2.100000	15.300000	20.900000	0.650000  # Sit
412	1	6	2.100000	12.810000	19.350000	0.670000  # Sit
413	1	5	-1.050000	10.030000	20.920000	2.260000  # Op
414	1	5	-1.050000	10.360000	23.710000	2.270000  # Op
415	1	3	-1.050000	10.390000	22.350000	0.000000  # Ob
416	1	3	-1.050000	11.370000	19.920000	0.210000  # Ob
417	1	3	-1.050000	11.410000	24.720000	0.010000  # Ob
418	1	4	-0.950000	10.040000	26.490000	2.320000  # Oh
419	1	4	-0.950000	14.160000	19.220000	4.330000  # Oh
420	1	4	-0.950000	9.420000	21.960000	4.310000  # Oh
421	1	4	-0.950000	9.430000	25.410000	4.340000  # Oh
422	1	2	0.425000	10.490000	18.390000	2.320000  # H
423	1	2	0.425000	9.280000	19.170000	5.270000  # H
424	1	2	0.425000	9.170000	22.230000	5.220000  # H
425	1	2	0.425000	11.740000	20.530000	5.190000  # H
426	1	1	1.575000	13.570000	26.680000	3.320000  # Alo
427	1	1	1.575000	11.010000	25.180000	3.320000  # Alo
428	1	6	2.100000	12.740000	25.370000	0.650000  # Sit
429	1	6	2.100000	10.250000	23.820000	0.670000  # Sit
430	1	5	-1.050000	12.620000	25.390000	2.260000  # Op
431	1	5	-1.050000	12.920000	19.240000	2.270000  # Op
432	1	3	-1.050000	12.950000	17.880000	0.000000  # Ob
433	1	3	-1.050000	13.960000	24.400000	0.210000  # Ob
434	1	3	-1.050000	13.970000	20.240000	0.010000  # Ob
435	1	4	-0.950000	12.600000	22.020000	2.320000  # Oh
436	1	4	-0.950000	11.600000	23.690000	4.330000  # Oh
437	1	4	-0.950000	12.010000	26.430000	4.310000  # Oh
438	1	4	-0.950000	11.990000	20.940000	4.340000  # Oh
439	1	2	0.425000	13.090000	22.860000	2.320000  # H
440	1	2	0.425000	11.880000	23.640000	5.270000  # H
441	1	2	0.425000	11.730000	17.760000	5.220000  # H
442	1	2	0.425000	9.170000	25.000000	5.190000  # H
443	1	1	1.575000	16.140000	22.210000	3.320000  # Alo
444	1	1	1.575000	18.730000	20.710000	3.320000  # Alo
445	1	6	2.100000	20.460000	20.900000	0.650000  # Sit
446	1	6	2.100000	17.960000	19.350000	0.670000  # Sit
447	1	5	-1.050000	15.180000	20.920000	2.260000  # Op
448	1	5	-1.050000	15.520000	23.710000	2.270000  # Op
449	1	3	-1.050000	15.540000	22.350000	0.000000  # Ob
450	1	3	-1.050000	16.530000	19.920000	0.210000  # Ob
451	1	3	-1.050000	16.560000	24.720000	0.010000  # Ob
452	1	4	-0.950000	15.190000	26.490000	2.320000  # Oh
453	1	4	-0.950000	19.310000	19.220000	4.330000  # Oh
454	1	4	-0.950000	14.570000	21.960000	4.310000  # Oh
455	1	4	-0.950000	14.580000	25.410000	4.340000  # Oh
456	1	2	0.425000	15.650000	18.390000	2.320000  # H
457	1	2	0.425000	14.440000	19.170000	5.270000  # H
458	1	2	0.425000	14.320000	22.230000	5.220000  # H
459	1	2	0.425000	16.890000	20.530000	5.190000  # H
460	1	1	1.575000	18.730000	26.680000	3.320000  # Alo
461	1	1	1.575000	16.170000	25.180000	3.320000  # Alo
462	1	6	2.100000	17.900000	25.370000	0.650000  # Sit
463	1	6	2.100000	15.400000	23.820000	0.670000  # Sit
464	1	5	-1.050000	17.770000	25.390000	2.260000  # Op
465	1	5	-1.050000	18.080000	19.240000	2.270000  # Op
466	1	3	-1.050000	18.100000	17.880000	0.000000  # Ob
467	1	3	-1.050000	19.120000	24.400000	0.210000  # Ob
468	1	3	-1.050000	19.120000	20.240000	0.010000  # Ob
469	1	4	-0.950000	17.750000	22.020000	2.320000  # Oh
470	1	4	-0.950000	16.750000	23.690000	4.330000  # Oh
471	1	4	-0.950000	17.160000	26.430000	4.310000  # Oh
472	1	4	-0.950000	17.140000	20.940000	4.340000  # Oh
473	1	2	0.425000	18.240000	22.860000	2.320000  # H
474	1	2	0.425000	17.030000	23.640000	5.270000  # H
475	1	2	0.425000	16.880000	17.760000	5.220000  # H
476	1	2	0.425000	14.330000	25.000000	5.190000  # H
477	1	1	1.575000	21.290000	22.210000	3.320000  # Alo
478	1	1	1.575000	23.880000	20.710000	3.320000  # Alo
479	1	6	2.100000	25.610000	20.900000	0.650000  # Sit
480	1	6	2.100000	23.120000	19.350000	0.670000  # Sit
481	1	5	-1.050000	20.330000	20.920000	2.260000  # Op
482	1	5	-1.050000	20.670000	23.710000	2.270000  # Op
483	1	3	-1.050000	20.690000	22.350000	0.000000  # Ob
484	1	3	-1.050000	21.680000	19.920000	0.210000  # Ob
485	1	3	-1.050000	21.720000	24.720000	0.010000  # Ob
486	1	4	-0.950000	20.340000	26.490000	2.320000  # Oh
487	1	4	-0.950000	24.470000	19.220000	4.330000  # Oh
488	1	4	-0.950000	19.720000	21.960000	4.310000  # Oh
489	1	4	-0.950000	19.730000	25.410000	4.340000  # Oh
490	1	2	0.425000	20.800000	18.390000	2.320000  # H
491	1	2	0.425000	19.590000	19.170000	5.270000  # H
492	1	2	0.425000	19.480000	22.230000	5.220000  # H
493	1	2	0.425000	22.040000	20.530000	5.190000  # H
494	1	1	1.575000	23.880000	26.680000	3.320000  # Alo
495	1	1	1.575000	21.320000	25.180000	3.320000  # Alo
496	1	6	2.100000	23.050000	25.370000	0.650000  # Sit
497	1	6	2.100000	20.560000	23.820000	0.670000  # Sit
498	1	5	-1.050000	22.930000	25.390000	2.260000  # Op
499	1	5	-1.050000	23.230000	19.240000	2.270000  # Op
500	1	3	-1.050000	23.260000	17.880000	0.000000  # Ob
501	1	3	-1.050000	24.270000	24.400000	0.210000  # Ob
502	1	3	-1.050000	24.280000	20.240000	0.010000  # Ob
503	1	4	-0.950000	22.900000	22.020000	2.320000  # Oh
504	1	4	-0.950000	21.910000	23.690000	4.330000  # Oh
505	1	4	-0.950000	22.320000	26.430000	4.310000  # Oh
506	1	4	-0.950000	22.290000	20.940000	4.340000  # Oh
507	1	2	0.425000	23.390000	22.860000	2.320000  # H
508	1	2	0.425000	22.180000	23.640000	5.270000  # H
509	1	2	0.425000	22.040000	17.760000	5.220000  # H
510	1	2	0.425000	19.480000	25.000000	5.190000  # H
511	1	1	1.575000	-1.310000	4.090000	10.460000  # Alo
512	1	1	1.575000	1.290000	2.590000	10.450000  # Alo
513	1	6	2.100000	3.010000	2.770000	7.780000  # Sit
514	1	6	2.100000	0.520000	1.220000	7.800000  # Sit
515	1	5	-1.050000	-2.260000	2.790000	9.390000  # Op
516	1	5	-1.050000	-1.930000	5.580000	9.410000  # Op
517	1	3	-1.050000	-1.900000	4.230000	7.130000  # Ob
518	1	3	-1.050000	-0.920000	1.800000	7.350000  # Ob
519	1	3	-1.050000	-0.880000	6.590000	7.140000  # Ob
520	1	4	-0.950000	-2.250000	8.360000	9.450000  # Oh
521	1	4	-0.950000	1.870000	1.090000	11.460000  # Oh
522	1	4	-0.950000	-2.870000	3.840000	11.450000  # Oh
523	1	4	-0.950000	-2.860000	7.280000	11.480000  # Oh
524	1	2	0.425000	-1.800000	0.260000	9.460000  # H
525	1	2	0.425000	-3.010000	1.040000	12.400000  # H
526	1	2	0.425000	-3.120000	4.100000	12.350000  # H
527	1	2	0.425000	-0.550000	2.400000	12.330000  # H
528	1	1	1.575000	1.280000	8.560000	10.460000  # Alo
529	1	1	1.575000	-1.280000	7.060000	10.450000  # Alo
530	1	6	2.100000	0.450000	7.240000	7.780000  # Sit
531	1	6	2.100000	-2.040000	5.690000	7.800000  # Sit
532	1	5	-1.050000	0.330000	7.270000	9.390000  # Op
533	1	5	-1.050000	0.630000	1.110000	9.410000  # Op
534	1	3	-1.050000	0.660000	-0.240000	7.130000  # Ob
535	1	3	-1.050000	1.670000	6.270000	7.350000  # Ob
536	1	3	-1.050000	1.680000	2.120000	7.140000  # Ob
537	1	4	-0.950000	0.310000	3.890000	9.450000  # Oh
538	1	4	-0.950000	-0.690000	5.560000	11.460000  # Oh
539	1	4	-0.950000	-0.280000	8.310000	11.450000  # Oh
540	1	4	-0.950000	-0.300000	2.810000	11.480000  # Oh
541	1	2	0.425000	0.800000	4.730000	9.460000  # H
542	1	2	0.425000	-0.410000	5.510000	12.400000  # H
543	1	2	0.425000	-0.560000	-0.370000	12.350000  # H
544	1	2	0.425000	-3.120000	6.870000	12.330000  # H
545	1	1	1.575000	3.850000	4.090000	10.460000  # Alo
546	1	1	1.575000	6.440000	2.590000	10.450000  # Alo
547	1	6	2.100000	8.170000	2.770000	7.780000  # Sit
548	1	6	2.100000	5.670000	1.220000	7.800000  # Sit
549	1	5	-1.050000	2.890000	2.790000	9.390000  # Op
550	1	5	-1.050000	3.230000	5.580000	9.410000  # Op
551	1	3	-1.050000	3.250000	4.230000	7.130000  # Ob
552	1	3	-1.050000	4.240000	1.800000	7.350000  # Ob
553	1	3	-1.050000	4.270000	6.590000	7.140000  # Ob
554	1	4	-0.950000	2.900000	8.360000	9.450000  # Oh
555	1	4	-0.950000	7.020000	1.090000	11.460000  # Oh
556	1	4	-0.950000	2.280000	3.840000	11.450000  # Oh
557	1	4	-0.950000	2.290000	7.280000	11.480000  # Oh
558	1	2	0.425000	3.360000	0.260000	9.460000  # H
559	1	2	0.425000	2.150000	1.040000	12.400000  # H
560	1	2	0.425000	2.030000	4.100000	12.350000  # H
561	1	2	0.425000	4.600000	2.400000	12.330000  # H
562	1	1	1.575000	6.440000	8.560000	10.460000  # Alo
563	1	1	1.575000	3.880000	7.060000	10.450000  # Alo
564	1	6	2.100000	5.610000	7.240000	7.780000  # Sit
565	1	6	2.100000	3.110000	5.690000	7.800000  # Sit
566	1	5	-1.050000	5.480000	7.270000	9.390000  # Op
567	1	5	-1.050000	5.790000	1.110000	9.410000  # Op
568	1	3	-1.050000	5.810000	-0.240000	7.130000  # Ob
569	1	3	-1.050000	6.830000	6.270000	7.350000  # Ob
570	1	3	-1.050000	6.830000	2.120000	7.140000  # Ob
571	1	4	-0.950000	5.460000	3.890000	9.450000  # Oh
572	1	4	-0.950000	4.460000	5.560000	11.460000  # Oh