CHARMM-GUI lammps input

              1800  atoms
              2700  bonds
              7020  angles
             16200  dihedrals
                 0  impropers

                14  atom types
                24  bond types
                69  angle types
               168  dihedral types
                 0  improper types

    -12.9000      12.9000 xlo xhi
    -13.4487      13.4487 ylo yhi
    -13.7848      13.7848 zlo zhi

Masses

       1         1.008  # IHOY
       2        15.999  # IOY1
       3        15.999  # IOY2
       4        15.999  # IOY3
       5        15.999  # IOY4
       6        15.999  # IOY5
       7        15.999  # IOY6
       8        15.999  # IOY7
       9        15.999  # IOY8
      10        15.999  # IOY9
      11        26.982  # IAY1
      12        26.982  # IAY2
      13        28.086  # ISY1
      14        28.086  # ISY2

Pair Coeffs

       1 0.01500000000000 0.96662510918227 # IHOY
       2 0.02500000000000 3.11814551349119 # IOY1
       3 0.02500000000000 3.11814551349119 # IOY2
       4 0.02500000000000 3.11814551349119 # IOY3
       5 0.02500000000000 3.11814551349119 # IOY4
       6 0.02500000000000 3.11814551349119 # IOY5
       7 0.02500000000000 3.11814551349119 # IOY6
       8 0.02500000000000 3.11814551349119 # IOY7
       9 0.02500000000000 3.11814551349119 # IOY8
      10 0.02500000000000 3.11814551349119 # IOY9
      11 0.05000000000000 3.74177461618943 # IAY1
      12 0.05000000000000 3.74177461618943 # IAY2
      13 0.05000000000000 3.56359487256136 # ISY1
      14 0.05000000000000 3.56359487256136 # ISY2

Atoms

           1        1     13   1.100    -7.8886984500   -12.5368073270   -11.5016865530 # NM-1-PP001-SI1-ISY1
           2        1     14   1.100   -10.4169844300   -10.9951909470   -11.5028843680 # NM-1-PP001-SI2-ISY2
           3        1     13   1.100   -10.4845980000    -8.0291572500   -11.5016865530 # NM-1-PP001-SI3-ISY1
           4        1     14   1.100    -7.8210848500    -6.4875408100   -11.5028843680 # NM-1-PP001-SI4-ISY2
           5        1      3  -0.550    -6.7324646700   -11.4693958450   -11.9464688100 # NM-1-PP001-O1-IOY2
           6        1      4  -0.550    -9.3050526300   -12.0067076370   -12.1630749500 # NM-1-PP001-O2-IOY3
           7        1      2  -0.550   -10.1702688900    -9.5040603560   -12.1552967820 # NM-1-PP001-O3-IOY1
           8        1      3  -0.550    -9.3283642500    -6.9617458270   -11.9464688100 # NM-1-PP001-O4-IOY2
           9        1      4  -0.550    -6.7091530500    -7.4990578580   -12.1630749500 # NM-1-PP001-O5-IOY3
          10        1      2  -0.550    -7.5743693100    -4.9964104580   -12.1552967820 # NM-1-PP001-O6-IOY1
          11        1     11   1.465    -9.6410425800   -12.4232145240    -8.7968957220 # NM-1-PP001-AL1-IAY1
          12        1     12   1.465    -9.6427992500    -9.4211195390    -8.8000871930 # NM-1-PP001-AL2-IAY2
          13        1     11   1.465    -7.0451430000    -7.9155646250    -8.7968957220 # NM-1-PP001-AL4-IAY1
          14        1     12   1.465    -7.0468987200    -4.9134694030    -8.8000871930 # NM-1-PP001-AL3-IAY2
          15        1      5  -0.757    -8.0344637600   -12.6639230540    -9.8641724380 # NM-1-PP001-O7-IOY4
          16        1      6  -0.757   -10.2403591800   -10.9356900140    -9.8651699820 # NM-1-PP001-O8-IOY5
          17        1      9  -0.757    -9.0434817000   -10.9086440490    -7.7318131720 # NM-1-PP001-O9-IOY8
          18        1     10  -0.701   -11.2657107000   -12.6107327630    -7.7976329120 # NM-1-PP001-O10-IOY9
          19        1      5  -0.757   -10.6303643000    -8.1562729760    -9.8641724380 # NM-1-PP001-O11-IOY4
          20        1      7  -0.701    -8.0181301800    -9.2336014200    -9.7993492880 # NM-1-PP001-O12-IOY6
          21        1     10  -0.701    -8.6698111200    -8.1030827450    -7.7976329120 # NM-1-PP001-O13-IOY9
          22        1      8  -0.757    -6.0575779600    -9.1804111880    -7.7328107150 # NM-1-PP001-O14-IOY7
          23        1      6  -0.757    -7.6444596000    -6.4280401160    -9.8651699820 # NM-1-PP001-O15-IOY5
          24        1      7  -0.701    -5.4222296400    -4.7259512830    -9.7993492880 # NM-1-PP001-O16-IOY6
          25        1      9  -0.757    -6.4475821200    -6.4009939120    -7.7318131720 # NM-1-PP001-O17-IOY8
          26        1      8  -0.757    -8.6534775400    -4.6727610510    -7.7328107150 # NM-1-PP001-O18-IOY7
          27        1      1   0.200   -11.7207736000   -11.8245986390    -7.6037637980 # NM-1-PP001-H1-IHOY
          28        1      1   0.200    -7.5630673100   -10.0197356630    -9.9932179250 # NM-1-PP001-H2-IHOY
          29        1      1   0.200    -9.1248739900    -7.3169485020    -7.6037637980 # NM-1-PP001-H3-IHOY
          30        1      1   0.200    -4.9671677300    -5.5120855260    -9.9932179250 # NM-1-PP001-H4-IHOY
          31        1     14   1.100    -8.8668564500   -10.8491431160    -6.0940992630 # NM-1-PP001-SI5-ISY2
          32        1     13   1.100    -6.2033432700    -9.3075269150    -6.0952961240 # NM-1-PP001-SI6-ISY1
          33        1     14   1.100    -6.2709568700    -6.3414932180    -6.0940992630 # NM-1-PP001-SI7-ISY2
          34        1     13   1.100    -8.7992428500    -4.7998772550    -6.0952961240 # NM-1-PP001-SI8-ISY1
          35        1      2  -0.550    -9.1135729500   -12.3402737660    -5.4416863710 # NM-1-PP001-O19-IOY1
          36        1      4  -0.550    -9.9787882500    -9.8376265450    -5.4339072500 # NM-1-PP001-O20-IOY3
          37        1      3  -0.550    -7.3595770500   -10.3749383380    -5.6505143440 # NM-1-PP001-O21-IOY2
          38        1      2  -0.550    -6.5176724100    -7.8326235700    -5.4416863710 # NM-1-PP001-O22-IOY1
          39        1      4  -0.550    -7.3828886700    -5.3299766470    -5.4339072500 # NM-1-PP001-O23-IOY3
          40        1      3  -0.550    -9.9554766400    -5.8672882010    -5.6505143440 # NM-1-PP001-O24-IOY2
          41        2     13   1.100    -7.8886984500    -3.5708073270   -11.5016865530 # NM-2-PP001-SI1-ISY1
          42        2     14   1.100   -10.4169844300    -2.0291909470   -11.5028843680 # NM-2-PP001-SI2-ISY2
          43        2     13   1.100   -10.4845980000     0.9368427500   -11.5016865530 # NM-2-PP001-SI3-ISY1
          44        2     14   1.100    -7.8210848500     2.4784591900   -11.5028843680 # NM-2-PP001-SI4-ISY2
          45        2      3  -0.550    -6.7324646700    -2.5033958450   -11.9464688100 # NM-2-PP001-O1-IOY2
          46        2      4  -0.550    -9.3050526300    -3.0407076370   -12.1630749500 # NM-2-PP001-O2-IOY3
          47        2      2  -0.550   -10.1702688900    -0.5380603560   -12.1552967820 # NM-2-PP001-O3-IOY1
          48        2      3  -0.550    -9.3283642500     2.0042541730   -11.9464688100 # NM-2-PP001-O4-IOY2
          49        2      4  -0.550    -6.7091530500     1.4669421420   -12.1630749500 # NM-2-PP001-O5-IOY3
          50        2      2  -0.550    -7.5743693100     3.9695895420   -12.1552967820 # NM-2-PP001-O6-IOY1
          51        2     11   1.465    -9.6410425800    -3.4572145240    -8.7968957220 # NM-2-PP001-AL1-IAY1
          52        2     12   1.465    -9.6427992500    -0.4551195390    -8.8000871930 # NM-2-PP001-AL2-IAY2
          53        2     11   1.465    -7.0451430000     1.0504353750    -8.7968957220 # NM-2-PP001-AL4-IAY1
          54        2     12   1.465    -7.0468987200     4.0525305970    -8.8000871930 # NM-2-PP001-AL3-IAY2
          55        2      5  -0.757    -8.0344637600    -3.6979230540    -9.8641724380 # NM-2-PP001-O7-IOY4
          56        2      6  -0.757   -10.2403591800    -1.9696900140    -9.8651699820 # NM-2-PP001-O8-IOY5
          57        2      9  -0.757    -9.0434817000    -1.9426440490    -7.7318131720 # NM-2-PP001-O9-IOY8
          58        2     10  -0.701   -11.2657107000    -3.6447327630    -7.7976329120 # NM-2-PP001-O10-IOY9
          59        2      5  -0.757   -10.6303643000     0.8097270240    -9.8641724380 # NM-2-PP001-O11-IOY4
          60        2      7  -0.701    -8.0181301800    -0.2676014200    -9.7993492880 # NM-2-PP001-O12-IOY6
          61        2     10  -0.701    -8.6698111200     0.8629172550    -7.7976329120 # NM-2-PP001-O13-IOY9
          62        2      8  -0.757    -6.0575779600    -0.2144111880    -7.7328107150 # NM-2-PP001-O14-IOY7
          63        2      6  -0.757    -7.6444596000     2.5379598840    -9.8651699820 # NM-2-PP001-O15-IOY5
          64        2      7  -0.701    -5.4222296400     4.2400487170    -9.7993492880 # NM-2-PP001-O16-IOY6
          65        2      9  -0.757    -6.4475821200     2.5650060880    -7.7318131720 # NM-2-PP001-O17-IOY8
          66        2      8  -0.757    -8.6534775400     4.2932389490    -7.7328107150 # NM-2-PP001-O18-IOY7
          67        2      1   0.200   -11.7207736000    -2.8585986390    -7.6037637980 # NM-2-PP001-H1-IHOY
          68        2      1   0.200    -7.5630673100    -1.0537356630    -9.9932179250 # NM-2-PP001-H2-IHOY
          69        2      1   0.200    -9.1248739900     1.6490514980    -7.6037637980 # NM-2-PP001-H3-IHOY
          70        2      1   0.200    -4.9671677300     3.4539144740    -9.9932179250 # NM-2-PP001-H4-IHOY
          71        2     14   1.100    -8.8668564500    -1.8831431160    -6.0940992630 # NM-2-PP001-SI5-ISY2
          72        2     13   1.100    -6.2033432700    -0.3415269150    -6.0952961240 # NM-2-PP001-SI6-ISY1
          73        2     14   1.100    -6.2709568700     2.6245067820    -6.0940992630 # NM-2-PP001-SI7-ISY2
          74        2     13   1.100    -8.7992428500     4.1661227450    -6.0952961240 # NM-2-PP001-SI8-ISY1
          75        2      2  -0.550    -9.1135729500    -3.3742737660    -5.4416863710 # NM-2-PP001-O19-IOY1
          76        2      4  -0.550    -9.9787882500    -0.8716265450    -5.4339072500 # NM-2-PP001-O20-IOY3
          77        2      3  -0.550    -7.3595770500    -1.4089383380    -5.6505143440 # NM-2-PP001-O21-IOY2
          78        2      2  -0.550    -6.5176724100     1.1333764300    -5.4416863710 # NM-2-PP001-O22-IOY1
          79        2      4  -0.550    -7.3828886700     3.6360233530    -5.4339072500 # NM-2-PP001-O23-IOY3
          80        2      3  -0.550    -9.9554766400     3.0987117990    -5.6505143440 # NM-2-PP001-O24-IOY2
          81        3     13   1.100    -7.8886984500     5.3951926730   -11.5016865530 # NM-3-PP001-SI1-ISY1
          82        3     14   1.100   -10.4169844300     6.9368090530   -11.5028843680 # NM-3-PP001-SI2-ISY2
          83        3     13   1.100   -10.4845980000     9.9028427500   -11.5016865530 # NM-3-PP001-SI3-ISY1
          84        3     14   1.100    -7.8210848500    11.4444591900   -11.5028843680 # NM-3-PP001-SI4-ISY2
          85        3      3  -0.550    -6.7324646700     6.4626041550   -11.9464688100 # NM-3-PP001-O1-IOY2
          86        3      4  -0.550    -9.3050526300     5.9252923630   -12.1630749500 # NM-3-PP001-O2-IOY3
          87        3      2  -0.550   -10.1702688900     8.4279396440   -12.1552967820 # NM-3-PP001-O3-IOY1
          88        3      3  -0.550    -9.3283642500    10.9702541730   -11.9464688100 # NM-3-PP001-O4-IOY2
          89        3      4  -0.550    -6.7091530500    10.4329421420   -12.1630749500 # NM-3-PP001-O5-IOY3
          90        3      2  -0.550    -7.5743693100    12.9355895420   -12.1552967820 # NM-3-PP001-O6-IOY1
          91        3     11   1.465    -9.6410425800     5.5087854760    -8.7968957220 # NM-3-PP001-AL1-IAY1
          92        3     12   1.465    -9.6427992500     8.5108804610    -8.8000871930 # NM-3-PP001-AL2-IAY2
          93        3     11   1.465    -7.0451430000    10.0164353750    -8.7968957220 # NM-3-PP001-AL4-IAY1
          94        3     12   1.465    -7.0468987200    13.0185305970    -8.8000871930 # NM-3-PP001-AL3-IAY2
          95        3      5  -0.757    -8.0344637600     5.2680769460    -9.8641724380 # NM-3-PP001-O7-IOY4
          96        3      6  -0.757   -10.2403591800     6.9963099860    -9.8651699820 # NM-3-PP001-O8-IOY5
          97        3      9  -0.757    -9.0434817000     7.0233559510    -7.7318131720 # NM-3-PP001-O9-IOY8
          98        3     10  -0.701   -11.2657107000     5.3212672370    -7.7976329120 # NM-3-PP001-O10-IOY9
          99        3      5  -0.757   -10.6303643000     9.7757270240    -9.8641724380 # NM-3-PP001-O11-IOY4
         100        3      7  -0.701    -8.0181301800     8.6983985800    -9.7993492880 # NM-3-PP001-O12-IOY6
         101        3     10  -0.701    -8.6698111200     9.8289172550    -7.7976329120 # NM-3-PP001-O13-IOY9
         102        3      8  -0.757    -6.0575779600     8.7515888120    -7.7328107150 # NM-3-PP001-O14-IOY7
         103        3      6  -0.757    -7.6444596000    11.5039598840    -9.8651699820 # NM-3-PP001-O15-IOY5
         104        3      7  -0.701    -5.4222296400    13.2060487170    -9.7993492880 # NM-3-PP001-O16-IOY6
         105        3      9  -0.757    -6.4475821200    11.5310060880    -7.7318131720 # NM-3-PP001-O17-IOY8
         106        3      8  -0.757    -8.6534775400    13.2592389490    -7.7328107150 # NM-3-PP001-O18-IOY7
         107        3      1   0.200   -11.7207736000     6.1074013610    -7.6037637980 # NM-3-PP001-H1-IHOY
         108        3      1   0.200    -7.5630673100     7.9122643370    -9.9932179250 # NM-3-PP001-H2-IHOY
         109        3      1   0.200    -9.1248739900    10.6150514980    -7.6037637980 # NM-3-PP001-H3-IHOY
         110        3      1   0.200    -4.9671677300    12.4199144740    -9.9932179250 # NM-3-PP001-H4-IHOY
         111        3     14   1.100    -8.8668564500     7.0828568840    -6.0940992630 # NM-3-PP001-SI5-ISY2
         112        3     13   1.100    -6.2033432700     8.6244730850    -6.0952961240 # NM-3-PP001-SI6-ISY1
         113        3     14   1.100    -6.2709568700    11.5905067820    -6.0940992630 # NM-3-PP001-SI7-ISY2
         114        3     13   1.100    -8.7992428500    13.1321227450    -6.0952961240 # NM-3-PP001-SI8-ISY1
         115        3      2  -0.550    -9.1135729500     5.5917262340    -5.4416863710 # NM-3-PP001-O19-IOY1
         116        3      4  -0.550    -9.9787882500     8.0943734550    -5.4339072500 # NM-3-PP001-O20-IOY3
         117        3      3  -0.550    -7.3595770500     7.5570616620    -5.6505143440 # NM-3-PP001-O21-IOY2
         118        3      2  -0.550    -6.5176724100    10.0993764300    -5.4416863710 # NM-3-PP001-O22-IOY1
         119        3      4  -0.550    -7.3828886700    12.6020233530    -5.4339072500 # NM-3-PP001-O23-IOY3
         120        3      3  -0.550    -9.9554766400    12.0647117990    -5.6505143440 # NM-3-PP001-O24-IOY2
         121        4     13   1.100    -2.7286984500   -12.5368073270   -11.5016865530 # NM-4-PP001-SI1-ISY1
         122        4     14   1.100    -5.2569844300   -10.9951909470   -11.5028843680 # NM-4-PP001-SI2-ISY2
         123        4     13   1.100    -5.3245980000    -8.0291572500   -11.5016865530 # NM-4-PP001-SI3-ISY1
         124        4     14   1.100    -2.6610848500    -6.4875408100   -11.5028843680 # NM-4-PP001-SI4-ISY2
         125        4      3  -0.550    -1.5724646700   -11.4693958450   -11.9464688100 # NM-4-PP001-O1-IOY2
         126        4      4  -0.550    -4.1450526300   -12.0067076370   -12.1630749500 # NM-4-PP001-O2-IOY3
         127        4      2  -0.550    -5.0102688900    -9.5040603560   -12.1552967820 # NM-4-PP001-O3-IOY1
         128        4      3  -0.550    -4.1683642500    -6.9617458270   -11.9464688100 # NM-4-PP001-O4-IOY2
         129        4      4  -0.550    -1.5491530500    -7.4990578580   -12.1630749500 # NM-4-PP001-O5-IOY3
         130        4      2  -0.550    -2.4143693100    -4.9964104580   -12.1552967820 # NM-4-PP001-O6-IOY1
         131        4     11   1.465    -4.4810425800   -12.4232145240    -8.7968957220 # NM-4-PP001-AL1-IAY1
         132        4     12   1.465    -4.4827992500    -9.4211195390    -8.8000871930 # NM-4-PP001-AL2-IAY2
         133        4     11   1.465    -1.8851430000    -7.9155646250    -8.7968957220 # NM-4-PP001-AL4-IAY1
         134        4     12   1.465    -1.8868987200    -4.9134694030    -8.8000871930 # NM-4-PP001-AL3-IAY2
         135        4      5  -0.757    -2.8744637600   -12.6639230540    -9.8641724380 # NM-4-PP001-O7-IOY4
         136        4      6  -0.757    -5.0803591800   -10.9356900140    -9.8651699820 # NM-4-PP001-O8-IOY5
         137        4      9  -0.757    -3.8834817000   -10.9086440490    -7.7318131720 # NM-4-PP001-O9-IOY8
         138        4     10  -0.701    -6.1057107000   -12.6107327630    -7.7976329120 # NM-4-PP001-O10-IOY9
         139        4      5  -0.757    -5.4703643000    -8.1562729760    -9.8641724380 # NM-4-PP001-O11-IOY4
         140        4      7  -0.701    -2.8581301800    -9.2336014200    -9.7993492880 # NM-4-PP001-O12-IOY6
         141        4     10  -0.701    -3.5098111200    -8.1030827450    -7.7976329120 # NM-4-PP001-O13-IOY9
         142        4      8  -0.757    -0.8975779600    -9.1804111880    -7.7328107150 # NM-4-PP001-O14-IOY7
         143        4      6  -0.757    -2.4844596000    -6.4280401160    -9.8651699820 # NM-4-PP001-O15-IOY5
         144        4      7  -0.701    -0.2622296400    -4.7259512830    -9.7993492880 # NM-4-PP001-O16-IOY6
         145        4      9  -0.757    -1.2875821200    -6.4009939120    -7.7318131720 # NM-4-PP001-O17-IOY8
         146        4      8  -0.757    -3.4934775400    -4.6727610510    -7.7328107150 # NM-4-PP001-O18-IOY7
         147        4      1   0.200    -6.5607736000   -11.8245986390    -7.6037637980 # NM-4-PP001-H1-IHOY
         148        4      1   0.200    -2.4030673100   -10.0197356630    -9.9932179250 # NM-4-PP001-H2-IHOY
         149        4      1   0.200    -3.9648739900    -7.3169485020    -7.6037637980 # NM-4-PP001-H3-IHOY
         150        4      1   0.200     0.1928322700    -5.5120855260    -9.9932179250 # NM-4-PP001-H4-IHOY
         151        4     14   1.100    -3.7068564500   -10.8491431160    -6.0940992630 # NM-4-PP001-SI5-ISY2
         152        4     13   1.100    -1.0433432700    -9.3075269150    -6.0952961240 # NM-4-PP001-SI6-ISY1
         153        4     14   1.100    -1.1109568700    -6.3414932180    -6.0940992630 # NM-4-PP001-SI7-ISY2
         154        4     13   1.100    -3.6392428500    -4.7998772550    -6.0952961240 # NM-4-PP001-SI8-ISY1
         155        4      2  -0.550    -3.9535729500   -12.3402737660    -5.4416863710 # NM-4-PP001-O19-IOY1
         156        4      4  -0.550    -4.8187882500    -9.8376265450    -5.4339072500 # NM-4-PP001-O20-IOY3
         157        4      3  -0.550    -2.1995770500   -10.3749383380    -5.6505143440 # NM-4-PP001-O21-IOY2
         158        4      2  -0.550    -1.3576724100    -7.8326235700    -5.4416863710 # NM-4-PP001-O22-IOY1
         159        4      4  -0.550    -2.2228886700    -5.3299766470    -5.4339072500 # NM-4-PP001-O23-IOY3
         160        4      3  -0.550    -4.7954766400    -5.8672882010    -5.6505143440 # NM-4-PP001-O24-IOY2
         161        5     13   1.100    -2.7286984500    -3.5708073270   -11.5016865530 # NM-5-PP001-SI1-ISY1
         162        5     14   1.100    -5.2569844300    -2.0291909470   -11.5028843680 # NM-5-PP001-SI2-ISY2
         163        5     13   1.100    -5.3245980000     0.9368427500   -11.5016865530 # NM-5-PP001-SI3-ISY1
         164        5     14   1.100    -2.6610848500     2.4784591900   -11.5028843680 # NM-5-PP001-SI4-ISY2
         165        5      3  -0.550    -1.5724646700    -2.5033958450   -11.9464688100 # NM-5-PP001-O1-IOY2
         166        5      4  -0.550    -4.1450526300    -3.0407076370   -12.1630749500 # NM-5-PP001-O2-IOY3
         167        5      2  -0.550    -5.0102688900    -0.5380603560   -12.1552967820 # NM-5-PP001-O3-IOY1
         168        5      3  -0.550    -4.1683642500     2.0042541730   -11.9464688100 # NM-5-PP001-O4-IOY2
         169        5      4  -0.550    -1.5491530500     1.4669421420   -12.1630749500 # NM-5-PP001-O5-IOY3
         170        5      2  -0.550    -2.4143693100     3.9695895420   -12.1552967820 # NM-5-PP001-O6-IOY1
         171        5     11   1.465    -4.4810425800    -3.4572145240    -8.7968957220 # NM-5-PP001-AL1-IAY1
         172        5     12   1.465    -4.4827992500    -0.4551195390    -8.8000871930 # NM-5-PP001-AL2-IAY2
         173        5     11   1.465    -1.8851430000     1.0504353750    -8.7968957220 # NM-5-PP001-AL4-IAY1
         174        5     12   1.465    -1.8868987200     4.0525305970    -8.8000871930 # NM-5-PP001-AL3-IAY2
         175        5      5  -0.757    -2.8744637600    -3.6979230540    -9.8641724380 # NM-5-PP001-O7-IOY4
         176        5      6  -0.757    -5.0803591800    -1.9696900140    -9.8651699820 # NM-5-PP001-O8-IOY5
         177        5      9  -0.757    -3.8834817000    -1.9426440490    -7.7318131720 # NM-5-PP001-O9-IOY8
         178        5     10  -0.701    -6.1057107000    -3.6447327630    -7.7976329120 # NM-5-PP001-O10-IOY9
         179        5      5  -0.757    -5.4703643000     0.8097270240    -9.8641724380 # NM-5-PP001-O11-IOY4
         180        5      7  -0.701    -2.8581301800    -0.2676014200    -9.7993492880 # NM-5-PP001-O12-IOY6
         181        5     10  -0.701    -3.5098111200     0.8629172550    -7.7976329120 # NM-5-PP001-O13-IOY9
         182        5      8  -0.757    -0.8975779600    -0.2144111880    -7.7328107150 # NM-5-PP001-O14-IOY7
         183        5      6  -0.757    -2.4844596000     2.5379598840    -9.8651699820 # NM-5-PP001-O15-IOY5
         184        5      7  -0.701    -0.2622296400     4.2400487170    -9.7993492880 # NM-5-PP001-O16-IOY6
         185        5      9  -0.757    -1.2875821200     2.5650060880    -7.7318131720 # NM-5-PP001-O17-IOY8
         186        5      8  -0.757    -3.4934775400     4.2932389490    -7.7328107150 # NM-5-PP001-O18-IOY7
         187        5      1   0.200    -6.5607736000    -2.8585986390    -7.6037637980 # NM-5-PP001-H1-IHOY
         188        5      1   0.200    -2.4030673100    -1.0537356630    -9.9932179250 # NM-5-PP001-H2-IHOY
         189        5      1   0.200    -3.9648739900     1.6490514980    -7.6037637980 # NM-5-PP001-H3-IHOY
         190        5      1   0.200     0.1928322700     3.4539144740    -9.9932179250 # NM-5-PP001-H4-IHOY
         191        5     14   1.100    -3.7068564500    -1.8831431160    -6.0940992630 # NM-5-PP001-SI5-ISY2
         192        5     13   1.100    -1.0433432700    -0.3415269150    -6.0952961240 # NM-5-PP001-SI6-ISY1
         193        5     14   1.100    -1.1109568700     2.6245067820    -6.0940992630 # NM-5-PP001-SI7-ISY2
         194        5     13   1.100    -3.6392428500     4.1661227450    -6.0952961240 # NM-5-PP001-SI8-ISY1
         195        5      2  -0.550    -3.9535729500    -3.3742737660    -5.4416863710 # NM-5-PP001-O19-IOY1
         196        5      4  -0.550    -4.8187882500    -0.8716265450    -5.4339072500 # NM-5-PP001-O20-IOY3
         197        5      3  -0.550    -2.1995770500    -1.4089383380    -5.6505143440 # NM-5-PP001-O21-IOY2
         198        5      2  -0.550    -1.3576724100     1.1333764300    -5.4416863710 # NM-5-PP001-O22-IOY1
         199        5      4  -0.550    -2.2228886700     3.6360233530    -5.4339072500 # NM-5-PP001-O23-IOY3
         200        5      3  -0.550    -4.7954766400     3.0987117990    -5.6505143440 # NM-5-PP001-O24-IOY2
         201        6     13   1.100    -2.7286984500     5.3951926730   -11.5016865530 # NM-6-PP001-SI1-ISY1
         202        6     14   1.100    -5.2569844300     6.9368090530   -11.5028843680 # NM-6-PP001-SI2-ISY2
         203        6     13   1.100    -5.3245980000     9.9028427500   -11.5016865530 # NM-6-PP001-SI3-ISY1
         204        6     14   1.100    -2.6610848500    11.4444591900   -11.5028843680 # NM-6-PP001-SI4-ISY2
         205        6      3  -0.550    -1.5724646700     6.4626041550   -11.9464688100 # NM-6-PP001-O1-IOY2
         206        6      4  -0.550    -4.1450526300     5.9252923630   -12.1630749500 # NM-6-PP001-O2-IOY3
         207        6      2  -0.550    -5.0102688900     8.4279396440   -12.1552967820 # NM-6-PP001-O3-IOY1
         208        6      3  -0.550    -4.1683642500    10.9702541730   -11.9464688100 # NM-6-PP001-O4-IOY2
         209        6      4  -0.550    -1.5491530500    10.4329421420   -12.1630749500 # NM-6-PP001-O5-IOY3
         210        6      2  -0.550    -2.4143693100    12.9355895420   -12.1552967820 # NM-6-PP001-O6-IOY1
         211        6     11   1.465    -4.4810425800     5.5087854760    -8.7968957220 # NM-6-PP001-AL1-IAY1
         212        6     12   1.465    -4.4827992500     8.5108804610    -8.8000871930 # NM-6-PP001-AL2-IAY2
         213        6     11   1.465    -1.8851430000    10.0164353750    -8.7968957220 # NM-6-PP001-AL4-IAY1
         214        6     12   1.465    -1.8868987200    13.0185305970    -8.8000871930 # NM-6-PP001-AL3-IAY2
         215        6      5  -0.757    -2.8744637600     5.2680769460    -9.8641724380 # NM-6-PP001-O7-IOY4
         216        6      6  -0.757    -5.0803591800     6.9963099860    -9.8651699820 # NM-6-PP001-O8-IOY5
         217        6      9  -0.757    -3.8834817000     7.0233559510    -7.7318131720 # NM-6-PP001-O9-IOY8
         218        6     10  -0.701    -6.1057107000     5.3212672370    -7.7976329120 # NM-6-PP001-O10-IOY9
         219        6      5  -0.757    -5.4703643000     9.7757270240    -9.8641724380 # NM-6-PP001-O11-IOY4
         220        6      7  -0.701    -2.8581301800     8.6983985800    -9.7993492880 # NM-6-PP001-O12-IOY6
         221        6     10  -0.701    -3.5098111200     9.8289172550    -7.7976329120 # NM-6-PP001-O13-IOY9
         222        6      8  -0.757    -0.8975779600     8.7515888120    -7.7328107150 # NM-6-PP001-O14-IOY7
         223        6      6  -0.757    -2.4844596000    11.5039598840    -9.8651699820 # NM-6-PP001-O15-IOY5
         224        6      7  -0.701    -0.2622296400    13.2060487170    -9.7993492880 # NM-6-PP001-O16-IOY6
         225        6      9  -0.757    -1.2875821200    11.5310060880    -7.7318131720 # NM-6-PP001-O17-IOY8
         226        6      8  -0.757    -3.4934775400    13.2592389490    -7.7328107150 # NM-6-PP001-O18-IOY7
         227        6      1   0.200    -6.5607736000     6.1074013610    -7.6037637980 # NM-6-PP001-H1-IHOY
         228        6      1   0.200    -2.4030673100     7.9122643370    -9.9932179250 # NM-6-PP001-H2-IHOY
         229        6      1   0.200    -3.9648739900    10.6150514980    -7.6037637980 # NM-6-PP001-H3-IHOY
         230        6      1   0.200     0.1928322700    12.4199144740    -9.9932179250 # NM-6-PP001-H4-IHOY
         231        6     14   1.100    -3.7068564500     7.0828568840    -6.0940992630 # NM-6-PP001-SI5-ISY2
         232        6     13   1.100    -1.0433432700     8.6244730850    -6.0952961240 # NM-6-PP001-SI6-ISY1
         233        6     14   1.100    -1.1109568700    11.5905067820    -6.0940992630 # NM-6-PP001-SI7-ISY2
         234        6     13   1.100    -3.6392428500    13.1321227450    -6.0952961240 # NM-6-PP001-SI8-ISY1
         235        6      2  -0.550    -3.9535729500     5.5917262340    -5.4416863710 # NM-6-PP001-O19-IOY1
         236        6      4  -0.550    -4.8187882500     8.0943734550    -5.4339072500 # NM-6-PP001-O20-IOY3
         237        6      3  -0.550    -2.1995770500     7.5570616620    -5.6505143440 # NM-6-PP001-O21-IOY2
         238        6      2  -0.550    -1.3576724100    10.0993764300    -5.4416863710 # NM-6-PP001-O22-IOY1
         239        6      4  -0.550    -2.2228886700    12.6020233530    -5.4339072500 # NM-6-PP001-O23-IOY3
         240        6      3  -0.550    -4.7954766400    12.0647117990    -5.6505143440 # NM-6-PP001-O24-IOY2
         241        7     13   1.100     2.4313015500   -12.5368073270   -11.5016865530 # NM-7-PP001-SI1-ISY1
         242        7     14   1.100    -0.0969844300   -10.9951909470   -11.5028843680 # NM-7-PP001-SI2-ISY2
         243        7     13   1.100    -0.1645980000    -8.0291572500   -11.5016865530 # NM-7-PP001-SI3-ISY1
         244        7     14   1.100     2.4989151500    -6.4875408100   -11.5028843680 # NM-7-PP001-SI4-ISY2
         245        7      3  -0.550     3.5875353300   -11.4693958450   -11.9464688100 # NM-7-PP001-O1-IOY2
         246        7      4  -0.550     1.0149473700   -12.0067076370   -12.1630749500 # NM-7-PP001-O2-IOY3
         247        7      2  -0.550     0.1497311100    -9.5040603560   -12.1552967820 # NM-7-PP001-O3-IOY1
         248        7      3  -0.550     0.9916357500    -6.9617458270   -11.9464688100 # NM-7-PP001-O4-IOY2
         249        7      4  -0.550     3.6108469500    -7.4990578580   -12.1630749500 # NM-7-PP001-O5-IOY3
         250        7      2  -0.550     2.7456306900    -4.9964104580   -12.1552967820 # NM-7-PP001-O6-IOY1
         251        7     11   1.465     0.6789574200   -12.4232145240    -8.7968957220 # NM-7-PP001-AL1-IAY1
         252        7     12   1.465     0.6772007500    -9.4211195390    -8.8000871930 # NM-7-PP001-AL2-IAY2
         253        7     11   1.465     3.2748570000    -7.9155646250    -8.7968957220 # NM-7-PP001-AL4-IAY1
         254        7     12   1.465     3.2731012800    -4.9134694030    -8.8000871930 # NM-7-PP001-AL3-IAY2
         255        7      5  -0.757     2.2855362400   -12.6639230540    -9.8641724380 # NM-7-PP001-O7-IOY4
         256        7      6  -0.757     0.0796408200   -10.9356900140    -9.8651699820 # NM-7-PP001-O8-IOY5
         257        7      9  -0.757     1.2765183000   -10.9086440490    -7.7318131720 # NM-7-PP001-O9-IOY8
         258        7     10  -0.701    -0.9457107000   -12.6107327630    -7.7976329120 # NM-7-PP001-O10-IOY9
         259        7      5  -0.757    -0.3103643000    -8.1562729760    -9.8641724380 # NM-7-PP001-O11-IOY4